<?xml version="1.0"?>
<VTKFile type="UnstructuredGrid"  version="0.1"  >
<UnstructuredGrid>
<Piece  NumberOfPoints="25032" NumberOfCells="49121">
<Points>
<DataArray  type="Float64"  NumberOfComponents="3"  format="ascii">-5 0 0  40 0 0  40 10 0  0 10 0  0 1 0  -5 1 0  -5 0.75 0  5 0.75 0  5 1.25 0  0 1.25 0  0 1.075 0  1 1.075 0  1 0.925 0  -2 0.925 0  -2 1 0  0 1.5 0  40 1.5 0  -4.924999999999996 0 0  -4.849999999999993 0 0  -4.774999999999989 0 0  -4.699999999999985 0 0  -4.624999999999981 0 0  -4.549999999999978 0 0  -4.474999999999974 0 0  -4.39999999999997 0 0  -4.324999999999966 0 0  -4.249999999999963 0 0  -4.174999999999959 0 0  -4.099999999999955 0 0  -4.024999999999951 0 0  -3.949999999999947 0 0  -3.874999999999943 0 0  -3.79999999999994 0 0  -3.724999999999936 0 0  -3.649999999999932 0 0  -3.574999999999929 0 0  -3.499999999999925 0 0  -3.424999999999921 0 0  -3.349999999999917 0 0  -3.274999999999913 0 0  -3.19999999999993 0 0  -3.124999999999964 0 0  -3.049999999999997 0 0  -2.97500000000003 0 0  -2.900000000000063 0 0  -2.825000000000129 0 0  -2.750000000000199 0 0  -2.675000000000269 0 0  -2.600000000000339 0 0  -2.525000000000407 0 0  -2.450000000000458 0 0  -2.37500000000051 0 0  -2.300000000000562 0 0  -2.225000000000613 0 0  -2.150000000000647 0 0  -2.075000000000662 0 0  -2.000000000000676 0 0  -1.925000000000691 0 0  -1.850000000000705 0 0  -1.775000000000705 0 0  -1.700000000000702 0 0  -1.625000000000698 0 0  -1.550000000000694 0 0  -1.47500000000069 0 0  -1.400000000000686 0 0  -1.325000000000682 0 0  -1.250000000000679 0 0  -1.175000000000675 0 0  -1.100000000000671 0 0  -1.025000000000667 0 0  -0.9500000000006636 0 0  -0.875000000000659 0 0  -0.8000000000006553 0 0  -0.7250000000006516 0 0  -0.6500000000006478 0 0  -0.5750000000006441 0 0  -0.5000000000006395 0 0  -0.4250000000006366 0 0  -0.3500000000006329 0 0  -0.2750000000006292 0 0  -0.2000000000006246 0 0  -0.1250000000006208 0 0  -0.05000000000061799 0 0  0.02499999999938662 0 0  0.09999999999939035 0 0  0.1749999999993941 0 0  0.2499999999993978 0 0  0.3249999999993758 0 0  0.3999999999993431 0 0  0.4749999999993095 0 0  0.5499999999992768 0 0  0.6249999999992433 0 0  0.6999999999991351 0 0  0.7749999999990296 0 0  0.8499999999989214 0 0  0.9249999999988141 0 0  0.9999999999986944 0 0  1.074999999998552 0 0  1.149999999998407 0 0  1.224999999998261 0 0  1.299999999998119 0 0  1.374999999997974 0 0  1.44999999999783 0 0  1.524999999997685 0 0  1.599999999997541 0 0  1.674999999997397 0 0  1.749999999997253 0 0  1.824999999997109 0 0  1.899999999996965 0 0  1.974999999996821 0 0  2.049999999996677 0 0  2.124999999996531 0 0  2.199999999996388 0 0  2.274999999996243 0 0  2.349999999996101 0 0  2.424999999995955 0 0  2.49999999999581 0 0  2.574999999995668 0 0  2.649999999995523 0 0  2.724999999995378 0 0  2.799999999995234 0 0  2.874999999995089 0 0  2.949999999994946 0 0  3.024999999994801 0 0  3.099999999994658 0 0  3.174999999994514 0 0  3.249999999994371 0 0  3.324999999994224 0 0  3.39999999999408 0 0  3.474999999993937 0 0  3.549999999993792 0 0  3.624999999993648 0 0  3.699999999993503 0 0  3.774999999993359 0 0  3.849999999993216 0 0  3.924999999993071 0 0  3.999999999992927 0 0  4.074999999992784 0 0  4.149999999992639 0 0  4.224999999992495 0 0  4.29999999999235 0 0  4.374999999992207 0 0  4.449999999992063 0 0  4.524999999991918 0 0  4.599999999991773 0 0  4.674999999991629 0 0  4.749999999991484 0 0  4.82499999999134 0 0  4.899999999991195 0 0  4.974999999991052 0 0  5.049999999990908 0 0  5.124999999990763 0 0  5.199999999990617 0 0  5.274999999990472 0 0  5.349999999990329 0 0  5.424999999990185 0 0  5.49999999999004 0 0  5.574999999989895 0 0  5.649999999989751 0 0  5.724999999989608 0 0  5.799999999989463 0 0  5.874999999989317 0 0  5.949999999989172 0 0  6.024999999989028 0 0  6.099999999988885 0 0  6.17499999998874 0 0  6.249999999988596 0 0  6.324999999988451 0 0  6.399999999988305 0 0  6.474999999988162 0 0  6.549999999988019 0 0  6.624999999987873 0 0  6.699999999987728 0 0  6.774999999987587 0 0  6.849999999987441 0 0  6.924999999987296 0 0  6.999999999987153 0 0  7.074999999987007 0 0  7.149999999986864 0 0  7.224999999986718 0 0  7.299999999986575 0 0  7.374999999986429 0 0  7.449999999986284 0 0  7.524999999986141 0 0  7.599999999985997 0 0  7.674999999985852 0 0  7.749999999985706 0 0  7.824999999985563 0 0  7.89999999998542 0 0  7.974999999985274 0 0  8.049999999985129 0 0  8.124999999984986 0 0  8.19999999998484 0 0  8.274999999984697 0 0  8.349999999984554 0 0  8.424999999984408 0 0  8.499999999984261 0 0  8.574999999984119 0 0  8.649999999983976 0 0  8.724999999983829 0 0  8.799999999983685 0 0  8.874999999983542 0 0  8.949999999983397 0 0  9.024999999983253 0 0  9.099999999983106 0 0  9.174999999982964 0 0  9.249999999982817 0 0  9.324999999982674 0 0  9.399999999982532 0 0  9.474999999982385 0 0  9.549999999982241 0 0  9.624999999982094 0 0  9.699999999981955 0 0  9.774999999981809 0 0  9.849999999981662 0 0  9.924999999981519 0 0  9.999999999981375 0 0  10.07499999998123 0 0  10.14999999998109 0 0  10.22499999998094 0 0  10.2999999999808 0 0  10.37499999998065 0 0  10.44999999998051 0 0  10.52499999998036 0 0  10.59999999998022 0 0  10.67499999998007 0 0  10.74999999997993 0 0  10.82499999997979 0 0  10.89999999997964 0 0  10.9749999999795 0 0  11.04999999997935 0 0  11.12499999997921 0 0  11.19999999997906 0 0  11.27499999997892 0 0  11.34999999997877 0 0  11.42499999997863 0 0  11.49999999997848 0 0  11.57499999997834 0 0  11.6499999999782 0 0  11.72499999997805 0 0  11.79999999997791 0 0  11.87499999997776 0 0  11.94999999997762 0 0  12.02499999997748 0 0  12.09999999997733 0 0  12.17499999997719 0 0  12.24999999997704 0 0  12.3249999999769 0 0  12.39999999997675 0 0  12.47499999997661 0 0  12.54999999997646 0 0  12.62499999997632 0 0  12.69999999997617 0 0  12.77499999997603 0 0  12.84999999997589 0 0  12.92499999997574 0 0  12.9999999999756 0 0  13.07499999997545 0 0  13.14999999997531 0 0  13.22499999997516 0 0  13.29999999997502 0 0  13.37499999997488 0 0  13.44999999997473 0 0  13.52499999997459 0 0  13.59999999997444 0 0  13.6749999999743 0 0  13.74999999997415 0 0  13.82499999997401 0 0  13.89999999997386 0 0  13.97499999997372 0 0  14.04999999997358 0 0  14.12499999997343 0 0  14.19999999997329 0 0  14.27499999997314 0 0  14.349999999973 0 0  14.42499999997285 0 0  14.49999999997271 0 0  14.57499999997257 0 0  14.64999999997242 0 0  14.72499999997228 0 0  14.79999999997213 0 0  14.87499999997199 0 0  14.94999999997185 0 0  15.0249999999717 0 0  15.09999999997156 0 0  15.17499999997142 0 0  15.24999999997127 0 0  15.32499999997113 0 0  15.39999999997098 0 0  15.47499999997084 0 0  15.54999999997069 0 0  15.62499999997055 0 0  15.69999999997041 0 0  15.77499999997026 0 0  15.84999999997012 0 0  15.92499999996997 0 0  15.99999999996983 0 0  16.07499999996969 0 0  16.14999999996954 0 0  16.2249999999694 0 0  16.29999999996926 0 0  16.37499999996911 0 0  16.44999999996897 0 0  16.52499999996882 0 0  16.59999999996868 0 0  16.67499999996853 0 0  16.74999999996839 0 0  16.82499999996825 0 0  16.8999999999681 0 0  16.97499999996796 0 0  17.04999999996781 0 0  17.12499999996767 0 0  17.19999999996763 0 0  17.27499999996763 0 0  17.34999999996764 0 0  17.42499999996764 0 0  17.49999999996764 0 0  17.57499999996794 0 0  17.64999999996824 0 0  17.72499999996854 0 0  17.79999999996884 0 0  17.87499999996919 0 0  17.94999999996964 0 0  18.02499999997008 0 0  18.09999999997053 0 0  18.17499999997098 0 0  18.24999999997143 0 0  18.32499999997188 0 0  18.39999999997232 0 0  18.47499999997277 0 0  18.54999999997322 0 0  18.62499999997367 0 0  18.69999999997412 0 0  18.77499999997456 0 0  18.84999999997501 0 0  18.92499999997546 0 0  18.99999999997591 0 0  19.07499999997636 0 0  19.14999999997681 0 0  19.22499999997725 0 0  19.2999999999777 0 0  19.37499999997815 0 0  19.4499999999786 0 0  19.52499999997904 0 0  19.5999999999795 0 0  19.67499999997995 0 0  19.74999999998039 0 0  19.82499999998084 0 0  19.89999999998129 0 0  19.97499999998174 0 0  20.04999999998218 0 0  20.12499999998263 0 0  20.19999999998308 0 0  20.27499999998353 0 0  20.34999999998398 0 0  20.42499999998443 0 0  20.49999999998487 0 0  20.57499999998532 0 0  20.64999999998576 0 0  20.72499999998622 0 0  20.79999999998667 0 0  20.87499999998711 0 0  20.94999999998756 0 0  21.024999999988 0 0  21.09999999998846 0 0  21.17499999998891 0 0  21.24999999998935 0 0  21.3249999999898 0 0  21.39999999999025 0 0  21.4749999999907 0 0  21.54999999999115 0 0  21.62499999999159 0 0  21.69999999999204 0 0  21.77499999999249 0 0  21.84999999999294 0 0  21.92499999999339 0 0  21.99999999999383 0 0  22.07499999999428 0 0  22.14999999999473 0 0  22.22499999999518 0 0  22.29999999999563 0 0  22.37499999999607 0 0  22.44999999999652 0 0  22.52499999999697 0 0  22.59999999999742 0 0  22.67499999999787 0 0  22.74999999999831 0 0  22.82499999999876 0 0  22.89999999999922 0 0  22.97499999999966 0 0  23.05000000000011 0 0  23.12500000000055 0 0  23.200000000001 0 0  23.27500000000145 0 0  23.3500000000019 0 0  23.42500000000235 0 0  23.5000000000028 0 0  23.57500000000324 0 0  23.65000000000369 0 0  23.72500000000414 0 0  23.80000000000459 0 0  23.87500000000503 0 0  23.95000000000548 0 0  24.02500000000594 0 0  24.10000000000638 0 0  24.17500000000683 0 0  24.25000000000728 0 0  24.32500000000773 0 0  24.40000000000817 0 0  24.47500000000862 0 0  24.55000000000907 0 0  24.62500000000952 0 0  24.70000000000997 0 0  24.77500000001042 0 0  24.85000000001086 0 0  24.92500000001131 0 0  25.00000000001176 0 0  25.07500000001221 0 0  25.15000000001266 0 0  25.2250000000131 0 0  25.30000000001355 0 0  25.37500000001399 0 0  25.45000000001445 0 0  25.5250000000149 0 0  25.60000000001534 0 0  25.67500000001579 0 0  25.75000000001624 0 0  25.82500000001669 0 0  25.90000000001714 0 0  25.97500000001758 0 0  26.05000000001803 0 0  26.12500000001848 0 0  26.2000000000189
[...]
<PointData  Vectors="f_20-0"> 
<DataArray  type="Float64"  Name="f_20-0"  NumberOfComponents="3" format="ascii">9.9990920426259511e-01 0.0000000000000000e+00 0.0000000000000000e+00  9.6128119902986287e-01 0.0000000000000000e+00 0.0000000000000000e+00  8.7590199452236149e-04 -9.4905205542175403e-04 0.0000000000000000e+00  1.0000000000000389e-24 0.0000000000000000e+00 0.0000000000000000e+00  1.0000000000000795e-24 0.0000000000000000e+00 0.0000000000000000e+00  1.0000000000000389e-24 0.0000000000000000e+00 0.0000000000000000e+00  8.4828363995751288e-01 0.0000000000000000e+00 0.0000000000000000e+00  7.1934993800513580e-01 2.8900764939299812e-03 0.0000000000000000e+00  1.0370248960215443e-01 -3.8670921872447791e-03 0.0000000000000000e+00  1.0000000000000109e-24 0.0000000000000000e+00 0.0000000000000000e+00  1.0000000000000109e-24 0.0000000000000000e+00 0.0000000000000000e+00  9.5232516710917134e-02 -7.2550975247107404e-03 0.0000000000000000e+00  3.3480865269279098e-01 2.0065668687203704e-03 0.0000000000000000e+00  3.0051603880565864e-01 -4.3649101535669297e-04 0.0000000000000000e+00  1.0000000000000109e-24 0.0000000000000000e+00 0.0000000000000000e+00  1.0000000000000109e-24 0.0000000000000000e+00 0.0000000000000000e+00  2.1189662398984013e-01 -1.6055877344227980e-04 0.0000000000000000e+00  1.0000089043401967e+00 0.0000000000000000e+00 0.0000000000000000e+00  1.0003244016951225e+00 0.0000000000000000e+00 0.0000000000000000e+00  1.0008925315159076e+00 0.0000000000000000e+00 0.0000000000000000e+00  1.0016779628026495e+00 0.0000000000000000e+00 0.0000000000000000e+00  1.0025637993129271e+00 0.0000000000000000e+00 0.0000000000000000e+00  1.0037052598355871e+00 0.0000000000000000e+00 0.0000000000000000e+00  1.0048885953955931e+00 0.0000000000000000e+00 0.0000000000000000e+00  1.0062955856748885e+00 0.0000000000000000e+00 0.0000000000000000e+00  1.0077754745445562e+00 0.0000000000000000e+00 0.0000000000000000e+00  1.0093619535199243e+00 0.0000000000000000e+00 0.0000000000000000e+00  1.0109952351227343e+00 0.0000000000000000e+00 0.0000000000000000e+00  1.0127175607365038e+00 0.0000000000000000e+00 0.0000000000000000e+00  1.0144751005006820e+00 0.0000000000000000e+00 0.0000000000000000e+00  1.0162736724062320e+00 0.0000000000000000e+00 0.0000000000000000e+00  1.0180920494359407e+00 0.0000000000000000e+00 0.0000000000000000e+00  1.0199329059984663e+00 0.0000000000000000e+00 0.0000000000000000e+00  1.0217810514927474e+00 0.0000000000000000e+00 0.0000000000000000e+00  1.0236419935797683e+00 0.0000000000000000e+00 0.0000000000000000e+00  1.0254967943809190e+00 0.0000000000000000e+00 0.0000000000000000e+00  1.0273521191917692e+00 0.0000000000000000e+00 0.0000000000000000e+00  1.0291988289071039e+00 0.0000000000000000e+00 0.0000000000000000e+00  1.0310507835842453e+00 0.0000000000000000e+00 0.0000000000000000e+00  1.0328830630851615e+00 0.0000000000000000e+00 0.0000000000000000e+00  1.0347050664624635e+00 0.0000000000000000e+00 0.0000000000000000e+00  1.0365155199340381e+00 0.0000000000000000e+00 0.0000000000000000e+00  1.0383118177920467e+00 0.0000000000000000e+00 0.0000000000000000e+00  1.0401049586420128e+00 0.0000000000000000e+00 0.0000000000000000e+00  1.0418799990007719e+00 0.0000000000000000e+00 0.0000000000000000e+00  1.0436419274262809e+00 0.0000000000000000e+00 0.0000000000000000e+00  1.0453891769992134e+00 0.0000000000000000e+00 0.0000000000000000e+00  1.0471239658918670e+00 0.0000000000000000e+00 0.0000000000000000e+00  1.0488465752953744e+00 0.0000000000000000e+00 0.0000000000000000e+00  1.0505615609105090e+00 0.0000000000000000e+00 0.0000000000000000e+00  1.0522495708816757e+00 0.0000000000000000e+00 0.0000000000000000e+00  1.0539352856407920e+00 0.0000000000000000e+00 0.0000000000000000e+00  1.0556188135660405e+00 0.0000000000000000e+00 0.0000000000000000e+00  1.0572785672510072e+00 0.0000000000000000e+00 0.0000000000000000e+00  1.0589259107957156e+00 0.0000000000000000e+00 0.0000000000000000e+00  1.0605608269811297e+00 0.0000000000000000e+00 0.0000000000000000e+00  1.0621810885973821e+00 0.0000000000000000e+00 0.0000000000000000e+00  1.0638039175406131e+00 0.0000000000000000e+00 0.0000000000000000e+00  1.0654067301303760e+00 0.0000000000000000e+00 0.0000000000000000e+00  1.0669984199063178e+00 0.0000000000000000e+00 0.0000000000000000e+00  1.0685749674329035e+00 0.0000000000000000e+00 0.0000000000000000e+00  1.0701417435723302e+00 0.0000000000000000e+00 0.0000000000000000e+00  1.0716979276257119e+00 0.0000000000000000e+00 0.0000000000000000e+00  1.0732457948322345e+00 0.0000000000000000e+00 0.0000000000000000e+00  1.0747618828277896e+00 0.0000000000000000e+00 0.0000000000000000e+00  1.0762796279100193e+00 0.0000000000000000e+00 0.0000000000000000e+00  1.0777931416693949e+00 0.0000000000000000e+00 0.0000000000000000e+00  1.0792766351480896e+00 0.0000000000000000e+00 0.0000000000000000e+00  1.0807374598588939e+00 0.0000000000000000e+00 0.0000000000000000e+00  1.0821819710713885e+00 0.0000000000000000e+00 0.0000000000000000e+00  1.0835912037688766e+00 0.0000000000000000e+00 0.0000000000000000e+00  1.0849922748641752e+00 0.0000000000000000e+00 0.0000000000000000e+00  1.0863546070219983e+00 0.0000000000000000e+00 0.0000000000000000e+00  1.0876659482076501e+00 0.0000000000000000e+00 0.0000000000000000e+00  1.0889450344664044e+00 0.0000000000000000e+00 0.0000000000000000e+00  1.0901453105787535e+00 0.0000000000000000e+00 0.0000000000000000e+00  1.0912967867977379e+00 0.0000000000000000e+00 0.0000000000000000e+00  1.0923775568332628e+00 0.0000000000000000e+00 0.0000000000000000e+00  1.0933393274470811e+00 0.0000000000000000e+00 0.0000000000000000e+00  1.0942217715269877e+00 0.0000000000000000e+00 0.0000000000000000e+00  1.0950247296944624e+00 0.0000000000000000e+00 0.0000000000000000e+00  1.0956824167210586e+00 0.0000000000000000e+00 0.0000000000000000e+00  1.0962314990531559e+00 0.0000000000000000e+00 0.0000000000000000e+00  1.0966805746779702e+00 0.0000000000000000e+00 0.0000000000000000e+00  1.0970248953994648e+00 0.0000000000000000e+00 0.0000000000000000e+00  1.0972807780880969e+00 0.0000000000000000e+00 0.0000000000000000e+00  1.0974818332452123e+00 0.0000000000000000e+00 0.0000000000000000e+00  1.0975849948447876e+00 0.0000000000000000e+00 0.0000000000000000e+00  1.0976684371325858e+00 0.0000000000000000e+00 0.0000000000000000e+00  1.0976887192788205e+00 0.0000000000000000e+00 0.0000000000000000e+00  1.0977046046416039e+00 0.0000000000000000e+00 0.0000000000000000e+00  1.0977061694361967e+00 0.0000000000000000e+00 0.0000000000000000e+00  1.0976658551738869e+00 0.0000000000000000e+00 0.0000000000000000e+00  1.0976485584013600e+00 0.0000000000000000e+00 0.0000000000000000e+00  1.0976379220704531e+00 0.0000000000000000e+00 0.0000000000000000e+00  1.0976139307918287e+00 0.0000000000000000e+00 0.0000000000000000e+00  1.0975805017716902e+00 0.0000000000000000e+00 0.0000000000000000e+00  1.0975472521648892e+00 0.0000000000000000e+00 0.0000000000000000e+00  1.0975135256434461e+00 0.0000000000000000e+00 0.0000000000000000e+00  1.0975046791085035e+00 0.0000000000000000e+00 0.0000000000000000e+00  1.0974818830773332e+00 0.0000000000000000e+00 0.0000000000000000e+00  1.0974592864559998e+00 0.0000000000000000e+00 0.0000000000000000e+00  1.0974303658371081e+00 0.0000000000000000e+00 0.0000000000000000e+00  1.0974047103753619e+00 0.0000000000000000e+00 0.0000000000000000e+00  1.0973865875275093e+00 0.0000000000000000e+00 0.0000000000000000e+00  1.0973685185813584e+00 0.0000000000000000e+00 0.0000000000000000e+00  1.0973276973157657e+00 0.0000000000000000e+00 0.0000000000000000e+00  1.0973033605926579e+00 0.0000000000000000e+00 0.0000000000000000e+00  1.0973051731016992e+00 0.0000000000000000e+00 0.0000000000000000e+00  1.0972832095012208e+00 0.0000000000000000e+00 0.0000000000000000e+00  1.0972537076677911e+00 0.0000000000000000e+00 0.0000000000000000e+00  1.0972262473994137e+00 0.0000000000000000e+00 0.0000000000000000e+00  1.0971872094168749e+00 0.0000000000000000e+00 0.0000000000000000e+00  1.0971887101536983e+00 0.0000000000000000e+00 0.0000000000000000e+00  1.0971633616381904e+00 0.0000000000000000e+00 0.0000000000000000e+00  1.0971428414205584e+00 0.0000000000000000e+00 0.0000000000000000e+00  1.0971113509843580e+00 0.0000000000000000e+00 0.0000000000000000e+00  1.0970825324264415e+00 0.0000000000000000e+00 0.0000000000000000e+00  1.0970593704780254e+00 0.0000000000000000e+00 0.0000000000000000e+00  1.0970386313736322e+00 0.0000000000000000e+00 0.0000000000000000e+00  1.0969890919471510e+00 0.0000000000000000e+00 0.0000000000000000e+00  1.0969600897154783e+00 0.0000000000000000e+00 0.0000000000000000e+00  1.0969580925120963e+00 0.0000000000000000e+00 0.0000000000000000e+00  1.0969300053399509e+00 0.0000000000000000e+00 0.0000000000000000e+00  1.0968931073507531e+00 0.0000000000000000e+00 0.0000000000000000e+00  1.0968573483848372e+00 0.0000000000000000e+00 0.0000000000000000e+00  1.0968096627776904e+00 0.0000000000000000e+00 0.0000000000000000e+00  1.0968069375553742e+00 0.0000000000000000e+00 0.0000000000000000e+00  1.0967741768833164e+00 0.0000000000000000e+00 0.0000000000000000e+00  1.0967462512618362e+00 0.0000000000000000e+00 0.0000000000000000e+00  1.0967057954568911e+00 0.0000000000000000e+00 0.0000000000000000e+00  1.0966681409052939e+00 0.0000000000000000e+00 0.0000000000000000e+00  1.0966372960839053e+00 0.0000000000000000e+00 0.0000000000000000e+00  1.0966090493749325e+00 0.0000000000000000e+00 0.0000000000000000e+00  1.0965512548771534e+00 0.0000000000000000e+00 0.0000000000000000e+00  1.0965145096048192e+00 0.0000000000000000e+00 0.0000000000000000e+00  1.0965029722052995e+00 0.0000000000000000e+00 0.0000000000000000e+00  1.0964653881010926e+00 0.0000000000000000e+00 0.0000000000000000e+00  1.0964190180321125e+00 0.0000000000000000e+00 0.0000000000000000e+00  1.0963719326083441e+00 0.0000000000000000e+00 0.0000000000000000e+00  1.0963173107616728e+00 0.0000000000000000e+00 0.0000000000000000e+00  1.0963014322223033e+00 0.0000000000000000e+00 0.0000000000000000e+00  1.0962620795472759e+00 0.0000000000000000e+00 0.0000000000000000e+00  1.0962230998306157e+00 0.0000000000000000e+00 0.0000000000000000e+00  1.0961696427746397e+00 0.0000000000000000e+00 0.0000000000000000e+00  1.0961165981953527e+00 0.0000000000000000e+00 0.0000000000000000e+00  1.0960737050642253e+00 0.0000000000000000e+00 0.0000000000000000e+00  1.0960095355262618e+00 0.0000000000000000e+00 0.0000000000000000e+00  1.0959811260976617e+00 0.0000000000000000e+00 0.0000000000000000e+00  1.0959356771200253e+00 0.0000000000000000e+00 0.0000000000000000e+00  1.0958860504383807e+00 0.0000000000000000e+00 0.0000000000000000e+00  1.0958521696557786e+00 0.0000000000000000e+00 0.0000000000000000e+00  1.0957907247598013e+00 0.0000000000000000e+00 0.0000000000000000e+00  1.0957389098304389e+00 0.0000000000000000e+00 0.0000000000000000e+00  1.0956927490256827e+00 0.0000000000000000e+00 0.0000000000000000e+00  1.0956533160630806e+00 0.0000000000000000e+00 0.0000000000000000e+00  1.0955979889753866e+00 0.0000000000000000e+00 0.0000000000000000e+00  1.0955363397633868e+00 0.0000000000000000e+00 0.0000000000000000e+00  1.0954558066350766e+00 0.0000000000000000e+00 0.0000000000000000e+00  1.0954275742383601e+00 0.0000000000000000e+00 0.0000000000000000e+00  1.0953677276923017e+00 0.0000000000000000e+00 0.0000000000000000e+00  1.0953198819444048e+00 0.0000000000000000e+00 0.0000000000000000e+00  1.0952483507622661e+00 0.0000000000000000e+00 0.0000000000000000e+00  1.0951390139392616e+00 0.0000000000000000e+00 0.0000000000000000e+00  1.0951156119166223e+00 0.0000000000000000e+00 0.0000000000000000e+00  1.0950321754410426e+00 0.0000000000000000e+00 0.0000000000000000e+00  1.0949785625878250e+00 0.0000000000000000e+00 0.0000000000000000e+00  1.0949304968364344e+00 0.0000000000000000e+00 0.0000000000000000e+00  1.0948840247422962e+00 0.0000000000000000e+00 0.0000000000000000e+00  1.0948108750116416e+00 0.0000000000000000e+00 0.0000000000000000e+00  1.0947212163486213e+00 0.0000000000000000e+00 0.0000000000000000e+00  1.0946934981011758e+00 0.0000000000000000e+00 0.0000000000000000e+00  1.0946388666225744e+00 0.0000000000000000e+00 0.0000000000000000e+00  1.0945591555671017e+00 0.0000000000000000e+00 0.0000000000000000e+00  1.0944948923283615e+00 0.0000000000000000e+00 0.0000000000000000e+00  1.0944158180552657e+00 0.0000000000000000e+00 0.0000000000000000e+00  1.0943491978994031e+00 0.0000000000000000e+00 0.0000000000000000e+00  1.0942783158348119e+00 0.0000000000000000e+00 0.0000000000000000e+00  1.0942086894062257e+00 0.0000000000000000e+00 0.0000000000000000e+00  1.0941186779425867e+00 0.0000000000000000e+00 0.0000000000000000e+00  1.0940349952517978e+00 0.0000000000000000e+00 0.0000000000000000e+00  1.0939504265053077e+00 0.0000000000000000e+00 0.0000000000000000e+00  1.0938771533974769e+00 0.0000000000000000e+00 0.0000000000000000e+00  1.0938026208097931e+00 0.0000000000000000e+00 0.0000000000000000e+00  1.0936965908881160e+00 0.0000000000000000e+00 0.0000000000000000e+00  1.0936343481978346e+00 0.0000000000000000e+00 0.0000000000000000e+00  1.0935800986013158e+00 0.0000000000000000e+00 0.0000000000000000e+00  1.0934866378277779e+00 0.0000000000000000e+00 0.0000000000000000e+00  1.0934037639431742e+00 0.0000000000000000e+00 0.0000000000000000e+00  1.0933165138785261e+00 0.0000000000000000e+00 0.0000000000000000e+00  1.0932368684026041e+00 0.0000000000000000e+00 0.0000000000000000e+00  1.0931401272332304e+00 0.0000000000000000e+00 0.0000000000000000e+00  1.0930540804745577e+00 0.0000000000000000e+00 0.0000000000000000e+00  1.0929490246878535e+00 0.0000000000000000e+00 0.0000000000000000e+00  1.0928797861465318e+00 0.0000000000000000e+00 0.0000000000000000e+00  1.0927714255885321e+00 0.0000000000000000e+00 0.0000000000000000e+00  1.0926627226610761e+00 0.0000000000000000e+00 0.0000000000000000e+00  1.0925926801823076e+00 0.0000000000000000e+00 0.0000000000000000e+00  1.0925117560394075e+00 0.0000000000000000e+00 0.0000000000000000e+00  1.0923863222960049e+00 0.0000000000000000e+00 0.0000000000000000e+00  1.0923024312638194e+00 0.0000000000000000e+00 0.0000000000000000e+00  1.0922015064032242e+00 0.0000000000000000e+00 0.0000000000000000e+00  1.0920917732926463e+00 0.0000000000000000e+00 0.0000000000000000e+00  1.0919967530360946e+00 0.0000000000000000e+00 0.0000000000000000e+00  1.0918881010464427e+00 0.0000000000000000e+00 0.0000000000000000e+00  1.0917945735988563e+00 0.0000000000000000e+00 0.0000000000000000e+00  1.0916754542344629e+00 0.0000000000000000e+00 0.0000000000000000e+00  1.0915520102571357e+00 0.0000000000000000e+00 0.0000000000000000e+00  1.0914483268860593e+00 0.0000000000000000e+00 0.0000000000000000e+00  1.0913271183851352e+00 0.0000000000000000e+00 0.0000000000000000e+00  1.0912248819867858e+00 0.0000000000000000e+00 0.0000000000000000e+00  1.0911273098587846e+00 0.0000000000000000e+00 0.0000000000000000e+00  1.0910193557517878e+00 0.0000000000000000e+00 0.0000000000000000e+00  1.0908971927321145e+00 0.0000000000000000e+00 0.0000000000000000e+00  1.0907947751501732e+00 0.0000000000000000e+00 0.0000000000000000e+00  1.0906612262279718e+00 0.0000000000000000e+00 0.0000000000000000e+00  1.0904966937330394e+00 0.0000000000000000e+00 0.0000000000000000e+00  1.0903946280736603e+00 0.0000000000000000e+00 0.0000000000000000e+00  1.0902915922826149e+00 0.0000000000000000e+00 0.0000000000000000e+00  1.0901802606118303e+00 0.0000000000000000e+00 0.0000000000000000e+00  1.0900666023192007e+00 0.0000000000000000e+00 0.0000000000000000e+00  1.0899303163791758e+00 0.0000000000000000e+00 0.0000000000000000e+00  1.0898233627176082e+00 0.0000000000000000e+00 0.0000000000000000e+00  1.0896677660771019e+00 0.0000000000000000e+00 0.0000000000000000e+00  1.0895536306949369e+00 0.0000000000000000e+00 0.0000000000000000e+00  1.0894243977439009e+00 0.0000000000000000e+00 0.0000000000000000e+00  1.0893008172685876e+00 0.0000000000000000e+00 0.0000000000000000e+00  1.0891547518165856e+00 0.0000000000000000e+00 0.0000000000000000e+00  1.0890258505513031e+00 0.0000000000000000e+00 0.0000000000000000e+00  1.0888775441469343e+00 0.0000000000000000e+00 0.0000000000000000e+00  1.0887338122811945e+00 0.0000000000000000e+00 0.0000000000000000e+00  1.0886124429407800e+00 0.0000000000000000e+00 0.0000000000000000e+00  1.0884665038546275e+00 0.0000000000000000e+00 0.0000000000000000e+00  1.0883232056516428e+00 0.0000000000000000e+00 0.0000000000000000e+00  1.0881905946909609e+00 0.0000000000000000e+00 0.0000000000000000e+00  1.0880523295070210e+00 0.0000000000000000e+00 0.0000000000000000e+00  1.0878858646739686e+00 0.0000000000000000e+00 0.0000000000000000e+00  1.0877483321658059e+00 0.0000000000000000e+00 0.0000000000000000e+00  1.0876010904923055e+00 0.0000000000000000e+00 0.0000000000000000e+00  1.0874563680001097e+00 0.0000000000000000e+00 0.0000000000000000e+00  1.0872926436203341e+00 0.0000000000000000e+00 0.0000000000000000e+00  1.0871333434518544e+00 0.0000000000000000e+00 0.0000000000000000e+00  1.0869959642806790e+00 0.0000000000000000e+00 0.0000000000000000e+00  1.0868348991429244e+00 0.0000000000000000e+00 0.0000000000000000e+00  1.0866770599923610e+00 0.0000000000000000e+00 0.0000000000000000e+00  1.0865280723622559e+00 0.0000000000000000e+00 0.0000000000000000e+00  1.0863741546663284e+00 0.0000000000000000e+00 0.0000000000000000e+00  1.0861934005485687e+00 0.0000000000000000e+00 0.0000000000000000e+00  1.0860399576111881e+00 0.0000000000000000e+00 0.0000000000000000e+00  1.0858778694630327e+00 0.0000000000000000e+00 0.0000000000000000e+00  1.0857180510929128e+00 0.0000000000000000e+00 0.0000000000000000e+00  1.0855392431169799e+00 0.0000000000000000e+00 0.0000000000000000e+00  1.0853645460459378e+00 0.0000000000000000e+00 0.0000000000000000e+00  1.0852114444836183e+00 0.0000000000000000e+00 0.0000000000000000e+00  1.0850359014595188e+00 0.0000000000000000e+00 0.0000000000000000e+00  1.0848630094236287e+00 0.0000000000000000e+00 0.0000000000000000e+00  1.0846977214638720e+00 0.0000000000000000e+00 0.0000000000000000e+00  1.0845280076179953e+00 0.0000000000000000e+00 0.0000000000000000e+00  1.0843324328345629e+00 0.0000000000000000e+00 0.0000000000000000e+00  1.0841635831447274e+00 0.0000000000000000e+00 0.0000000000000000e+00  1.0839861233903134e+00 0.0000000000000000e+00 0.0000000000000000e+00  1.0838107146427141e+00 0.0000000000000000e+00 0.0000000000000000e+00  1.0836171221879305e+00 0.0000000000000000e+00 0.0000000000000000e+00  1.0834269226281961e+00 0.0000000000000000e+00 0.0000000000000000e+00  1.0832580958914571e+00 0.0000000000000000e+00 0.0000000000000000e+00  1.0830677610155706e+00 0.0000000000000000e+00 0.0000000000000000e+00  1.0828798272038744e+00 0.0000000000000000e+00 0.0000000000000000e+00  1.0826982164114087e+00 0.0000000000000000e+00 0.0000000000000000e+00  1.0825127044654030e+00 0.0000000000000000e+00 0.0000000000000000e+00  1.0823015169325718e+00 0.0000000000000000e+00 0.0000000000000000e+00  1.0821184621293034e+00 0.0000000000000000e+00 0.0000000000000000e+00  1.0819282755214383e+00 0.0000000000000000e+00 0.0000000000000000e+00  1.0817334821657687e+00 0.0000000000000000e+00 0.0000000000000000e+00  1.0815172295639985e+00 0.0000000000000000e+00 0.0000000000000000e+00  1.0813176697658087e+00 0.0000000000000000e+00 0.0000000000000000e+00  1.0811350100744033e+00 0.0000000000000000e+00 0.0000000000000000e+00  1.0809308970846414e+00 0.0000000000000000e+00 0.0000000000000000e+00  1.0807280624638267e+00 0.0000000000000000e+00 0.0000000000000000e+00  1.0805305366356956e+00 0.0000000000000000e+00 0.0000000000000000e+00  1.0803293494333472e+00 0.0000000000000000e+00 0.0000000000000000e+00  1.0801036987569650e+00 0.0000000000000000e+00 0.0000000000000000e+00  1.0799052069688309e+00 0.0000000000000000e+00 0.0000000000000000e+00  1.0796992176840456e+00 0.0000000000000000e+00 0.0000000000000000e+00  1.0794897296707389e+00 0.0000000000000000e+00 0.0000000000000000e+00  1.0