<?xml version="1.0"?>
<VTKFile type="UnstructuredGrid" version="0.1">
  <UnstructuredGrid>
    <Piece NumberOfPoints="13748" NumberOfCells="26154">
      <Points>
        <DataArray type="Float64" NumberOfComponents="3" format="ascii">0.1999999999992071 0 0 0.2499999999990089 0 0 0.2240797835588876 0.04513662610378141 0 0.173998024117085 0.04509936865023582 0 0.1499999999994053 0 0 0.2740050690790076 0.04800518458127696 0 0.2999999999988107 0 0 0.19731328030004 0.08956019363600735 0 0.1228941671534425 0.04946432300125036 0 0.2476934943494194 0.09298692183112248 0 0.3243047241675648 0.04835300592201741 0 0.3499999999986125 0 0 0.146900218705805 0.09296588041166476 0 0.09999999999960357 0 0 0.2980332920225254 0.09580163218443863 0 0.3769004259997394 0.04691183917544923 0 0.1707725567819418 0.1365505827454401 0 0.09058948037042944 0.09436664254838345 0 0.2211284962227803 0.1373420651886954 0 0.07561536899311982 0.04137515816338051 0 0.2713516473569026 0.1401659235106784 0 0.349023397490074 0.09758103466699566 0 0.3999999999984147 0 0 0.122197302143599 0.1370555062309394 0 0.04999999999980179 0 0 0.3235799205665251 0.1404286173410811 0 0.4082162872373593 0.09831283448104405 0 0.4281450374243154 0.04411899257211062 0 0.1443503984800131 0.1803365573148464 0 0.1946528180056273 0.181714070419928 0 0.0799465308081895 0.1417006075171698 0 0.04302807372971278 0.1228004636778061 0 0.04214502279166116 0.07412073205031558 0 0.2449871805427507 0.1830746989889964 0 0.03660254037855627 0.03660254037866512 0 0 0 0 0.2953444999026261 0.1844106596490361 0 0.3733699947880005 0.1438691950745556 0 0.4499999999982193 0 0 0.09670417694631817 0.1805004498551087 0 0.1682591680007759 0.2245362816269545 0 0.04503314197565673 0.1773608064436956 0 0 0.05000000000020799 0 0.3464415387236326 0.1857031950527935 0 0.4187116687239925 0.1541524670950774 0 0.4489171405157109 0.1251961344361191 0 0.4576371121844457 0.08288197814197845 0 0.4749999999981215 0.03789078096194077 0 0.4999999999980239 0 0 0.1180366989417635 0.2230957605272336 0 0.2185648662576632 0.2260081529475808 0 0 0.100000000000416 0 0 0.1500000000006241 0 0.2689776513368211 0.2274339831336768 0 0.3196260813319204 0.2288141851119752 0 0.3969498492838023 0.1866662908555073 0 0.4687981009837682 0.172963076660714 0 0.495387847465774 0.1191357928341395 0 0.5215364014376058 0.0400704628476706 0 0.5499999999978284 0 0 0.07020672289634726 0.2241994675905352 0 0.1418800799149793 0.2672948370233912 0 0.1922050153688092 0.2689166038526074 0 0 0.2000000000008322 0 0.370021805785586 0.2301685425638593 0 0.436073864016146 0.1939813340681968 0 0.5254691808187992 0.1732375334248577 0 0.5527863973563899 0.1305791328439982 0 0.4972975950643505 0.07132426748353123 0 0.5732187699845204 0.04176098753506204 0 0.599999999997633 0 0 0.09165311600974287 0.2658390819608969 0 0.03006383203944278 0.224847189182381 0 0.2425192454204214 0.2704927083393102 0 0.2931290322543012 0.2719115415041628 0 0.3438419599885559 0.2732571887683227 0 0.4242394745677038 0.2361702819690054 0 0.4608355231265635 0.2172125872617176 0 0.5020489289084469 0.2196801874108856 0 0.5781297647127202 0.1769284664748058 0 0.604800206020079 0.1337116770957656 0 0.5331871381723876 0.088006675118226 0 0.5804861456737077 0.08883668691780958 0 0.6249999999975352 0.04330127018905255 0 0.04419660435995563 0.2705045357657687 0 0.1170728935022863 0.3090696174608484 0 0 0.2500000000010403 0 0.1658680346046841 0.3116675292387384 0 0.2161386980143314 0.3135001139396699 0 0.393099375128095 0.2754636010171055 0 0.551262852208543 0.2203149300409353 0 0.6292685028617448 0.1784997861510232 0 0.6562114641269052 0.135417179559972 0 0.6319189613890068 0.09200881062698499 0 0.6499999999974374 0 0 0.07631246885692627 0.3026405562281774 0 0.2666262626460649 0.3150896070966298 0 0.3173442934305395 0.3165422311330364 0 0.3680876336726993 0.3179004595009265 0 0.433853665909768 0.2836345954166747 0 0.4730172471567524 0.2632680561997864 0 0.5247513519342317 0.2638672580498201 0 0.6022794744235044 0.2218777466528206 0 0.68070106650642 0.1807146245525485 0 0.6734116782327606 0.04332826497187944 0 0.04178179321122982 0.3258526445775467 0 0.08820223082057435 0.3524753112316935 0 0 0.3000000000012483 0 0.1386651659985976 0.3546574353959378 0 0.189338076167809 0.356718668353155 0 0.2398645585437978 0.3583311661794851 0 0.4189703149059211 0.3193384376253846 0 0.5736378129628998 0.264053177979619 0 0.653344498308105 0.223403972227196 0 0.7073323609781076 0.1364124570786429 0 0.6828620089133209 0.0915592045316882 0 0.6999999999972421 0 0 0.2132121307742837 0.4015862798858902 0 0.2907417374904844 0.3598541235530384 0 0.3416471227682754 0.361240011685638 0 0.392798116497924 0.3624278176575905 0 0.4602429535937941 0.3200646766744092 0 0.4975990406652263 0.3071480934240196 0 0.5481646003543906 0.30425240727557 0 0.6201761603699345 0.2665883948290954 0 0.7065306485490016 0.2304221896066437 0 0.7319835268946555 0.1810399245353847 0 0.7236088483446609 0.04374278765952576 0 0 0.3500000000014564 0 0.04096477989456777 0.3755546593026331 0 0.1142691032049477 0.3988360225778569 0 0.1623736945260251 0.3997913952371528 0 0.2640594179205948 0.4032034660034567 0 0.4429302322492 0.3635562573877662 0 0.5896787536894238 0.2989891963339622 0 0.6677420348966563 0.2701950653584029 0 0.7590311501267243 0.1375037087973365 0 0.7350725019518833 0.09241988973491011 0 0.7499999999970466 0 0 0.07297349075872556 0.3999107538018412 0 0.18644787434349 0.444633232448333 0 0.2372807205987063 0.4465354752790404 0 0.3150496429812997 0.4047282200746107 0 0.366377771985837 0.4059540592740972 0 0.4187756234056111 0.4065776804717303 0 0.4968211869036334 0.3611633800701712 0 0.5265146245954024 0.3352769101770228 0 0.5756732662358981 0.3365386432180122 0 0.630009093956248 0.3212204728096577 0 0.7085150383122931 0.2776972458126804 0 0.7409785800923683 0.2630807487418798 0 0.7583559375870103 0.225184697936584 0 0.7828803562335446 0.1826916006848325 0 0.7749999999969495 0.04330127018905313 0 0 0.4000000000016644 0 0.04330127018939268 0.4250000000017683 0 0.08480933022676945 0.4464197658880896 0 0.1360616356032608 0.44308360085511 0 0.2882476199626289 0.4482638878625631 0 0.470790693440874 0.4078644693091003 0 0.6847469220077012 0.3186764437845987 0 0.738650280092267 0.3138906047356841 0 0.7802524072419141 0.271870702965173 0 0.8099101122740309 0.1390312814215157 0 0.7870080424281243 0.0934270993287333 0 0.7999999999968522 0 0 0.1597774435492957 0.4876480910753619 0 0.2103920371135634 0.4898323179681482 0 0.2611926942454436 0.4918590150820957 0 0.3394778069034291 0.4497839416079605 0 0.3913312261717367 0.4509766240042291 0 0.4433441729336249 0.4521455604109542 0 0.5226591598099855 0.4091461225610699 0 0.5497816109958438 0.3663180033958383 0 0.6022225329071667 0.3691821148386099 0 0.6551752298450566 0.3664601481653886 0 0.7879662864162832 0.324559055247848 0 0.8073296515179649 0.2280371320367935 0 0.8343337806777275 0.1842131843814042 0 0.8249999999967551 0.04330127018905286 0 0 0.4500000000018723 0 0.04098273560205243 0.4726619746746035 0 0.1130325805892498 0.488667181556677 0 0.3125026393108086 0.4935538438206587 0 0.4954005825310459 0.4534394957270989 0 0.70720652771695 0.368427079971414 0 0.8317445533136512 0.2733858550403341 0 0.7602400451278959 0.3694778696337747 0 0.8620878182835181 0.1398599134118382 0 0.8402726416214755 0.09309654998869266 0 0.8499999999966593 0 0 0.0735146012522731 0.4966895815489424 0 0.1330530047870741 0.5306197621869191 0 0.1831885254959569 0.5332010568869294 0 0.2344649644484877 0.5351170370371292 0 0.2854518991732827 0.5373756072811839 0 0.3640630801860701 0.495003773899847 0 0.4159489016158477 0.4963947283607862 0 0.4680494713713211 0.4977027245242843 0 0.5474495551123579 0.4549119842630727 0 0.5748569691316909 0.4104358011339713 0 0.6271061927105144 0.4118267347509345 0 0.6794796813164152 0.4133049745088756 0 0.8420437007132935 0.3252458851732385 0 0.8131767554100018 0.3708178679000365 0 0.8588851265499998 0.229573104430623 0 0.8859697197347208 0.1855789073996598 0 0.8749999999965631 0.04330127018905496 0 0.8999999999964666 0 0 0 0.5000000000020587 0 0.04127203503563013 0.5212738737474019 0 0.08724922455400561 0.5309758583210761 0 0.3368762788894177 0.5390031137459723 0 0.5200617355565238 0.4991995744704902 0 0.7323364460461558 0.4145875259708086 0 0.8833433152670369 0.2751865478064121 0 0.7851413567623607 0.4160865236153756 0 0.9132302137359294 0.1416267473150672 0 0.8923686873605471 0.09320490549669724 0 0.9242482001882211 0.04419754660322366 0 0.9499999999962742 0 0 0.1027729535487926 0.5744844597636115 0 0.1549871850487866 0.5766391449332957 0 0.2065859143935896 0.579920480245586 0 0.2580760675700605 0.5815367413142856 0 0.3095987505754779 0.5831838926869626 0 0.3886925730251491 0.540497155079555 0 0.4406760885225151 0.5419982007493256 0 0.4927263586796731 0.5435189736181423 0 0.5721647732040896 0.5005797082939794 0 0.5996046616358444 0.4564695918658759 0 0.651968897115649 0.4579614754833179 0 0.7046089133228285 0.4588251444002494 0 0.8663714477747897 0.372102171229179 0 0.8955228128121836 0.3264506307598054 0 0.8384109345138617 0.4172895816632454 0 0.9105790985026545 0.231115769095221 0 0.9378749463905907 0.1869920526835734 0 0.9656238732010179 0.1424326079188573 0 0.9431773342424276 0.09508045785708327 0 0.972125293528031 0.04887980042752418 0 0.9999999999960815 0 0 0 0.5500000000017335 0 0.04738577807724528 0.5744987477933206 0 0.3613628242400679 0.5846407134540664 0 0.5449147898445035 0.5449464476299677 0 0.7573843326781736 0.460637755940395 0 0.9350737587079401 0.2766841159492616 0 0.8104989855389905 0.4617254878779181 0 0.989704839028448 0.1884545750348696 0 1.017145579398383 0.1443495274122648 0 0.9942417515205364 0.097599508326393 0 1.022553465028943 0.04921531763718099 0 1.049999999995889 0 0 0.07895150690200869 0.6183757339266736 0 0.12608221814822 0.6202750361111684 0 0.1785542874719333 0.6240486569959685 0 0.2304739787128822 0.6261307145878168 0 0.282198201716909 0.6274123
[...]
      <PointData Scalars="f_11">
        <DataArray type="Float64" Name="f_11" format="ascii">200 200 200 200 200 200 200 200 200 200 200 200 200 200 200 200 200 200 200 200 200 200 200 200 200 200 200 200 200 200 200 200 200 200 200 200 200 200 200 200 200 200 200 200 200 200 200 200 200 200 200 200 200 200 200 200 200 200 200 200 200 200 200 200 200 200 200 200 200 200 200 200 200 200 200 200 200 200 200 200 200 200 200 200 200 200 200 200 200 200 200 200 200 200 200 200 200 200 200 200 200 200 200 200 200 200 200 200 200 200 200 200 200 200 200 200 200 200 200 200 200 200 200 200 200 200 200 200 200 200 200 200 200 200 200 200 200 200 200 200 200 200 200 200 200 200 200 200 200 200 200 200 200 200 200 200 200 200 200 200 200 200 200 200 200 200 200 200 200 200 200 200 200 200 200 200 200 200 200 200 200 200 200 200 200 200 200 200 200 200 200 200 200 200 200 200 200 200 200 200 200 200 200 200 200 200 200 200 200 200 200 200 200 200 200 200 200 200 200 200 200 200 200 200 200 200 200 200 200 200 200 200 200 200 200 200 200 200 200 200 200 200 200 200 200 200 200 200 200 200 200 200 200 200 200 200 200 200 200 200 200 200 200 200 200 200 200 200 200 200 200 200 200 200 200 200 200 200 200 200 200 200 200 200 200 200 200 200 200 200 200 200 200 200 200 200 200 200 200 200 200 200 200 200 200 200 200 200 200 200 200 200 200 200 200 200 200 200 200 200 200 200 200 200 200 200 200 200 200 200 200 200 200 200 200 200 200 200 200 200 200 200 200 200 200 200 200 200 200 200 200 200 200 200 200 200 200 200 200 200 200 200 200 200 200 200 200 200 200 200 200 200 200 200 200 200 200 200 200 200 200 200 200 200 200 200 200 200 200 200 200 200 200 200 200 200 200 200 200 200 200 200 200 200 200 200 200 200 200 200 200 200 200 200 200 200 200 200 200 200 200 200 200 200 200 200 200 200 200 200 200 200 200 200 200 200 200 200 200 200 200 200 200 200 200 200 200 200 200 200 200 200 200 200 200 200 200 200 200 200 200 200 200 200 200 200 200 200 200 200 200 200 200 200 200 200 200 200 200 200 200 200 200 200 200 200 200 200 200 200 200 200 200 200 200 200 200 200 200 200 200 200 200 200 200 200 200 200 200 200 200 200 200 200 200 200 200 200 200 200 200 200 200 200 200 200 200 200 200 200 200 200 200 200 200 200 200 200 200 200 200 200 200 200 200 200 200 200 200 200 200 200 200 200 200 200 200 200 200 200 200 200 200 200 200 200 200 200 200 200 200 200 200 200 200 200 200 200 200 200 200 200 200 200 200 200 200 200 200 200 200 200 200 200 200 200 200 200 200 200 200 200 200 200 200 200 200 200 200 200 200 200 200 200 200 200 200 200 200 200 200 200 200 200 200 200 200 200 200 200 200 200 200 200 200 200 200 200 200 200 200 200 200 200 200 200 200 200 200 200 200 200 200 200 200 200 200 200 200 200 200 200 200 200 200 200 200 200 200 200 200 200 200 200 200 200 200 200 200 200 200 200 200 200 200 200 200 200 200 200 200 200 200 200 200 200 200 200 200 200 200 200 200 200 200 200 200 200 200 200 200 200 200 200 200 200 200 200 200 200 200 200 200 200 200 200 200 200 200 200 200 200 200 200 200 200 200 200 200 200 200 200 200 200 200 200 200 200 200 200 200 200 200 200 200 200 200 200 200 200 200 200 200 200 200 200 200 200 200 200 200 200 200 200 200 200 200 200 200 200 200 200 200 200 200 200 200 200 200 200 200 200 200 200 200 200 200 200 200 200 200 200 200 200 200 200 200 200 200 200 200 200 200 200 200 200 200 200 200 200 200 200 200 200 200 200 200 200 200 200 200 200 200 200 200 200 200 200 200 200 200 200 200 200 200 200 200 200 200 200 200 200 200 200 200 200 200 200 200 200 200 200 200 200 200 200 200 200 200 200 200 200 200 200 200 200 200 200 200 200 200 200 200 200 200 200 200 200 200 200 200 200 200 200 200 200 200 200 200 200 200 200 200 200 200 200 200 200 200 200 200 200 200 200 200 200 200 200 200 200 200 200 200 200 200 200 200 200 200 200 200 200 200 200 200 200 200 200 200 200 200 200 200 200 200 200 200 200 200 200 200 200 200 200 200 200 200 200 200 200 200 200 200 200 200 200 200 200 200 200 200 200 200 200 200 200 200 200 200 200 200 200 200 200 200 200 200 200 200 200 200 200 200 200 200 200 200 200 200 200 200 200 200 200 200 200 200 200 200 200 200 200 200 200 200 200 200 200 200 200 200 200 200 200 200 200 200 200 200 200 200 200 200 200 200 200 200 200 200 200 200 200 200 200 200 200 200 200 200 200 200 200 200 200 200 200 200 200 200 200 200 200 200 200 200 200 200 200 200 200 200 200 200 200 200 200 200 200 200 200 200 200 200 200 200 200 200 200 200 200 200 200 200 200 200 200 200 200 200 200 200 200 200 200 200 200 200 200 200 200 200 200 200 200 200 200 200 200 200 200 200 200 200 200 200 200 200 200 200 200 200 200 200 200 200 200 200 200 200 200 200 200 200 200 200 200 200 200 200 200 200 200 200 200 200 200 200 200 200 200 200 200 200 200 200 200 200 200 200 200 200 200 200 200 200 200 200 200 200 200 200 200 200 200 200 200 200 200 200 200 200 200 200 200 200 200 200 200 200 200 200 200 200 200 200 200 200 200 200 200 200 200 200 200 200 200 200 200 200 200 200 200 200 200 200 200 200 200 200 200 200 200 200 200 200 200 200 200 200 200 200 200 200 200 200 200 200 200 200 200 200 200 200 200 200 200 200 200 200 200 200 200 200 200 200 200 200 200 200 200 200 200 200 200 200 200 200 200 200 200 200 200 200 200 200 200 200 200 200 200 200 200 200 200 200 200 200 200 200 200 200 200 200 200 200 200 200 200 200 200 200 200 200 200 200 200 200 200 200 200 200 200 200 200 200 200 200 200 200 200 200 200 200 200 200 200 200 200 200 200 200 200 200 200 200 200 200 200 200 200 200 200 200 200 200 200 200 200 200 200 200 200 200 200 200 200 200 200 200 200 200 200 200 200 200 200 200 200 200 200 200 200 200 200 200 200 200 200 200 200 200 200 200 200 200 200 200 200 200 200 200 200 200 200 200 200 200 200 200 200 200 200 200 200 200 200 200 200 200 200 200 200 200 200 200 200 200 200 200 200 200 200 200 200 200 200 200 200 200 200 200 200 200 200 200 200 200 200 200 200 200 200 200 200 200 200 200 200 200 200 200 200 200 200 200 200 200 200 200 200 200 200 200 200 200 200 200 200 200 200 200 200 200 200 200 200 200 200 200 200 200 200 200 200 200 200 200 200 200 200 200 200 200 200 200 200 200 200 200 200 200 200 200 200 200 200 200 200 200 200 200 200 200 200 200 200 200 200 200 200 200 200 200 200 200 200 200 200 200 200 200 200 200 200 200 200 200 200 200 200 200 200 200 200 200 200 200 200 200 200 200 200 200 200 200 200 200 200 200 200 200 200 200 200 200 200 200 200 200 200 200 200 200 200 200 200 200 200 200 200 200 200 200 200 200 200 200 200 200 200 200 200 200 200 200 200 200 200 200 200 200 200 200 200 200 200 200 200 200 200 200 200 200 200 200 200 200 200 200 200 200 200 200 200 200 200 200 200 200 200 200 200 200 200 200 200 200 200 200 200 200 200 200 200 200 200 200 200 200 200 200 200 200 200 200 200 200 200 200 200 200 200 200 200 200 200 200 200 200 200 200 200 200 200 200 200 200 200 200 200 200 200 200 200 200 200 200 200 200 200 200 200 200 200 200 200 200 200 200 200 200 200 200 200 200 200 200 200 200 200 200 200 200 200 200 200 200 200 200 200 200 200 200 200 200 200 200 200 200 200 200 200 200 200 200 200 200 200 200 200 200 200 200 200 200 200 200 200 200 200 200 200 200 200 200 200 200 200 200 200 200 200 200 200 200 200 200 200 200 200 200 200 200 200 200 200 200 200 200 200 200 200 200 200 200 200 200 200 200 200 200 200 200 200 200 200 200 200 200 200 200 200 200 200 200 200 200 200 200 200 200 200 200 200 200 200 200 200 200 200 200 200 200 200 200 200 200 200 199.9999999999998 200 200 200 200 200 200 200 200 200 200 200 200 200 200 200 200 200 200 200 200 200 200 200 200 200 200 200 200 200 200 200 200 200 200 200 200 200 200 200 200 200 200 200 200 200 200 200 200 200 200 199.9999999999774 200 200 200 200 200 200 200 200 200 200 200 200 200 200 200 200 200 200 200 200 200 200 200 200 200 200 200 200 200 200 200 200 200 200 200 200 200 200 200 200 200 200 200 200 199.9999999999998 200 199.9999999999894 199.9999999993437 199.9999999845711 200 200 200 200 200 200 200 200 200 200 200 200 200 200 200 200 200 200 200 200 200 200 200 200 200 200 200 200 200 200 200 200 200 200 200 200 200 200 200 200 200 200 200 200 200 200 200 200 200 200 200 200 200 200 199.9999998264602 199.9999987233763 200 200 200 200 200 200 200 200 200 200 200 200 200 200 200 200 200 200 200 200 200 200 200 200 200 200 200 200 200 200 200 200 200 200 200 200 199.9999999999999 200 200 200 200 200 200 200 200 200 200 199.9999999999436 199.9999999993239 199.9999999999974 199.9999999922817 199.9999926401689 200 200 200 200 200 200 200 200 200 200 200 200 200 200 200 200 200 200 200 200 200 200 200 200 200 200 200 200 200 200 200 200 200 200 200 200 200 200 200 200 200 200 200 200 200 200 200 200 200 200 200 200 200 200 200 200 199.9999992212626 199.9999682451813 200 200 200 200 200 200 200 200 200 200 200 200 200 200 200 200 200 200 200 200 200 200 200 200 200 200 200 200 200 200 200 200 200 200 200 200 200 200 200 200 200 199.9999999999991 199.9999999999779 199.9999999996718 200 200 200 200 200 200 200 200 200 200 200 200 200 199.9999999967006 199.9999999837181 199.9999999301898 199.9999775486411 199.999884342518 199.9996262443447 200 200 200 200 200 200 200 200 200 200 200 200 200 200 200 200 200 200 200 200 200 200 200 200 200 200 200 200 200 200 200 200 200 200 200 200 200 200 200 200 200 200 200 200 200 200 200 200 200 200 200 200 200 200 200 200 200 200 200 199.999998002489 199.9989421765867 199.9973207129176 200 200 200 200 200 200 200 200 200 200 200 200 200 200 200 200 200 200 200 200 200 200 200 200 200 200 200 200 200 200 200 200 200 200 200 200 200 200 200 200 200 200 200 200 200 200 200 199.9999999998404 199.9999999980788 199.9999999853273 199.9999999140582 200 200 200 200 200 200 200 200 200 200 200 200 200 200 200 200 200 200 199.9999995641294 199.9999560027607 199.9996787764207 199.993693713978 200 200 200 200 200 200 200 200 200 200 200 200 200 200 200 200 200 200 200 200 200 200 200 200 200 200 200 200 200 200 200 200 200 200 200 200 200 199.9999999999918 200 200 200 200 200 200 200 200 200 200 200 200 200 200 200 200 200 200 200 200 200 200 199.9999843002063 199.9971845493049 199.9863839878922 200 200 200 200 200 200 200 200 200 200 200 200 200 200 200 200 200 200 200 200 200 200 200 200 200 200 200 200 200 200 200 200 200 200 200 200 200 200 200 200 200 200 200 200 200 200 200 200 200 200 200 200 200 199.9999999999998 199.9999999921714 199.999999944217 199.9999996993907 200 199.9999987143924 199.9999951627922 200 200 200 200 200 200 200 200 200 200 200 200 200 200 200 200 200 200 200 200 200 200 200 200 200 200 199.9997983763223 199.9986640962909 199.9866356273587 199.972087557391 200 200 200 200 200 200 200 200 200 200 200 200 200 200 200 200 200 200 200 200 200 200 200 200 200 200 200 200 200 200 200 200 200 200 200 200 200 200 200 200 200 200 200 199.9999999991905 200 200 200 200 200 200 200 200 200 200 200 200 200 200 200 200 200 200 200 200 200 200 200 200 200 200 200 200 200 199.9999153555307 199.9927881331092 199.945948142684 200 200 200 200 200 200 200 200 200 200 200 200 200 200 200 200 200 200 200 200 200 200 200 200 200 200 200 200 200 200 200 200 200 200 200 200 200 200 200 200 200 200 200 200 200 200 199.9999999999478 199.9999998342702 199.9999991942415 199.9999967594128 200 199.9999891883221 200 199.999968180265 200 200 200 200 200 200 200 200 200 200 200 200 200 200 200 200 200 200 200 200 200 200 200 200 200 200 200 200 200 200 199.9992346277419 199.9952544748584 199.9724329945832 199.9468204269588 199.8991304743727 200 200 200 200 200 200 200 200 200 200 200 200 200 200 200 200 200 200 200 200 200 200 200 200 200 200 200 200 200 200 200 200 200 200 200 200 200 200 200 200 200 200 200 200 200 200 200 200 200 200 200 199.9999999732179 199.999999999998 200 200 200 200 200 200 200 200 200 200 200 200 200 200 200 200 200 200 200 200 200 200 200 200 200 200 200 200 200 200 199.9996321282229 199.9844274617105 199.8211367654482 200 200 200 200 200 200 200 200 200 200 200 200 200 200 200 200 200 200 200 200 200 200 200 200 200 200 200 200 200 200 200 200 200 200 200 200 200 200 200 200 200 200 200 200 200 200 200 200 200 199.9999999965858 199.9999981015021 199.99999294425 199.9999774182516 199.9999364277246 200 200 199.9998409258367 200 200 200 200 200 200 200 200 200 200 200 200 200 200 200 200 200 200 200 200 200 200 200 200 200 200 200 200 200 200 199.9973115329044 199.9846089618788 199.9567297196116 199.9069657945767 199.8243078287995 199.6909244984606 200 200 200 200 200 200 200 200 200 200 200 200 200 200 200 200 200 200 200 200 200 200 200 200 200 200 200 200 200 200 200 200 200 200 200 200 200 200 200 200 200 200 200 200 200 200 200 200 200 199.99999958602 199.9999999993602 199.9999999999999 200 200 200 200 200 200 200 200 200 200 200 200 200 200 200 200 200 200 200 200 200 200 200 200 200 200 200 200 200 200 200 200 200 200 200 200 199.9986814678765 199.4838559865209 200 200 200 200 200 200 200 200 200 200 200 200 200 200 200 200 200 200 200 200 200 200 200 200 200 200 200 200 200 200 200 200 200 200 200 200 200 200 200 199.9999998926469 199.999986339615 199.9999574876771 199.9998831288239 199.9997162263098 199.9993681058496 200 200 200 200 200 200 200 200 200 200 200 200 200 200 200 200 200 200 200 200 200 200 200 200 200 200 200 200 200 200 200 200 200 200 200 200 200 200 200 200 200 200 200 199.9926429220884 199.9467372484416 199.8531690697602 199.7198380855629 199.5112218879693 199.18310565679 200 200 200 200 200 200 200 200 200 200 200 200 200 200 200 200 200 200 200 200 200 200 200 200 200 200 200 200 200 200 200 200 200 200 200 200 200 200 200 200 200 200 200 200 200 200 200 200 200 200 200 200 199.999995788992 199.9999999728878 199.9999999999062 200 200 200 200 200 200 200 200 200 200 200 200 200 200 200 200 200 200 200 200 200 200 200 200 200 200 200 200 200 200 200 200 200 200 200 200 200 200 200 200 200 199.9959851529768 199.9684954685264 198.8714154652623 198.6589900943628 200 200 200 200 200 200 200 200 200 200 200 200 200 200 200 200 200 200 200 200 200 200 200 200 200 200 200 200 200 200 200 200 200 200 200 200 200 200 200 200 200 200 200 200 200 199.9999986141694 199.9999282773647 199.9998001487581 199.9995275778489 199.9989557748511 199.9979077017636 199.9999999999941 200 200 200 200 200 200 200 200 200 200 200 200 200 200 200 200 200 200 200 200 200 200 200 200 200 200 200 200 200 200 200 200 200 200 200 200 200 200 200 200 200 200 200 200 200 200 199.9813880331886 199.8908736096641 199.5308589190146 199.2588832273831 198.0964277471402 200 200 200 200 200 200 200 200 200 200 200 200 200 200 200 200 200 200 200 200 200 200 200 200 200 200 200 200 200 200 200 200 200 200 200 200 200 200 200 200 200 200 200 200 200 200 200 200 199.9999751350747 199.9999994807733 199.999999993065 199.9999999999998 200 200 200 200 200 200 200 200 200 200 200 200 200 200 200 200 200 200 200 200 200 200 200 200 200 200 200 200 200 200 200 200 200 200 200 200 200 200 200 200 200 200 200 200 200 200 200 199.9894428291729 199.9308124482666 199.6780852361039 198.293596270081 197.6492258065579 196.7921567279433 200 200 200 200 200 200 200 200 200 200 200 200 200 200 200 200 200 200 200 200 200 200 200 200 200 200 200 200 200 200 200 200 200 200 200 200 200 200 200 200 200 200 200 200 200 200 200 200 199.9999906702259 199.9996978903584 199.9992243883736 199.9983608072107 199.996717290458 199.9939693815308 199.9999999991926 200 200 200 200 200 200 200 200 200 200 200 200 200 200 200 200 200 200 200 200 200 200 200 200 200 200 200 200 200 200 200 200 200 200 200 200 200 200 200 200 200 200 200 200 200 200 200 200 200 200 200 200 200 200 199.9572573136151 199.7827414801934 199.1442264818633 198.8128454515107 195.4031129194197 200 200 200 200 200 200 200 200 200 200 200 200 200 200 200 200 200 200 200 200 200 200 200 200 200 200 200 200 200 200 200 200 200 200 200 200 200 200 200 200 200 200 200 200 200 200 200 200 200 200 200 200 200 199.9999295593302 199.9999938929745 199.9999998411136 199.9999999999325 200 200 200 200 200 200 200 200 200 200 200 200 200 200 200 200 200 200 200 200 200 200 200 200 200 200 200 200 200 200 200 200 200 200 200 200 200 200 200 200 200 200 200 200 200 200 200 200 200 200 200 200 200 200 200 200 200 199.9745479158615 199.8571335836369 199.4005957380757 197.1748932084399 196.2123763082041 192.833880483352 200 200 200 200 200 200 200 200 200 200 200 200 200 200 200 200 200 200 200 200 200 200 200 200 200 200 200 200 200 200 200 200 200 200 200 200 200 200 200 200 200 200 200 200 200 200 200 200 200 200 199.9988177282454 199.9974677284168 199.9950501647961 199.9908863693998 199.9841497481824 199.9999999687228 199.9999999999966 200 200 200 200 200 200 200 200 200 200 200 200 200 200 200 200 200 200 200 200 200 200 200 200 200 200 200 200 200 200 200 200 200 200 200 200 200 200 200 200 200 200 200 200 200 200 200 200 200 200 200 200 200 200 200 200 200 200 200 200 199.9104414618638 199.5871561945164 198.4990924057493 197.9250576646331 192.1570299597965 189.5039959972335 200 200 200 200 200 200 200 200 200 200 200 200 200 200 200 200 200 200 200 200 200 200 200 200 200 200 200 200 200 200 200 200 200 200 200 200 200 200 200 200 200 200 200 200 200 200 200 200 200 199.9999616240789 199.9995896807502 199.9999980042345 199.999999995367 200 200 200 200 200 200 200 200 200 200 200 200 200 200 200 200 200 200 200 200 200 200 200 200 200 200 200 200 200 200 200 200 200 200 200 200 200 200 200 200 200 200 200 200 200 200 200 200 200 200 200 200 200 200 200 200 200 200 200 200 200 199.9421513851758 199.7262263689303 198.9533729630025 195.4005985551781 193.8385935852692 184.9641350623677 200 200 200 200 200 200 200 200 200 200 200 200 200 200 200 200 200 200 200 200 200 200 200 200 200 200 200 200 200 200 200 200 200 200 200 200 200 200 200 200 200 200 200 200 200 200 200 200 200 200 199.9928184891876 199.9965243358017 199.9868379823774 199.9772224953757 199.9625281476561 199.9999994564753 199.9999999995092 199.9999999999999 200 200 200 200 200 200 200 200 200 200 200 200 200 200 200 200 200 200 200 200 200 200 200 200 200 200 200 200 200 200 200 200 200 200 200 200 200 200 200 200 200 200 200 200 200 200 200 200 200 200 200 200 200 200 200 200 200 200 200 200 200 200 200 200 200 200 200 200 200 200 199.8190415376022 199.262447330599 197.4250418912016 196.5070428651497 188.6340142077955 184.816792144382 179.6705268230428 200 200 200 200 200 200 200 200 200 200 200 200 200 200 200 200 200 200 200 200 200 200 200 200 200 200 200 200 200 200 200 200 200 200 200 200 200 200 200 200 200 200 199.9998032236736 199.9999843072318 199.9982683561808 199.9999998809784 200 200 200 200 200 200 200 200 200 200 200 200 200 200 200 200 200 200 200 200 200 200 200 200 200 200 200 200 200 200 200 200 200 200 200 200 200 200 200 200 200 200 200 200 200 200 200 200 200 200 200 200 200 200 200 200 200 200 200 200 200 200 200 200 200 200 200 200 200 200 200 200 200 200 199.8757050578999 199.4923304992914 198.4568690070678 192.3488950120536 191.706943212708 170.5026876712336 200 200 200 200 200 200 200 200 200 200 200 200 200 200 200 200 200 200 200 200 200 200 200 200 200 200 200 200 200 200 200 200 200 200 200 200 200 200 200 200 200 200 200 200 200 199.9813654988953 199.9680994427456 199.9897621327658 199.9475599298165 199.9170761116404 199.9999945472866 199.9999999791499 199.9999999999663 200 200 200 200 200 200 200 200 200 200 200 200 200 200 200 200 200 200 200 200 200 200 200 200 200 200 200 200 200 200 200 200 200 200 200 200 200 200 200 200 200 200 200 200 200 200 200 200 200 200 200 200 200 200 200 200 200 200 200 200 200 200 200 200 200 200 200 200 200 200 200 200 200 200 200 200 199.6280857138971 198.7146699556091 197.0033116337752 195.1424266622644 194.9540716629016 185.0039390243234 179.0736027339881 172.0534452940956 161.2098562034736 200 200 200 200 200 200 200 200 200 200 200 200 200 200 200 200 200 200 200 200 200 200 200 200 200 200 200 200 200 200 200 200 200 200 200 199.9991609595018 199.9999068179513 199.9944727828628 199.9999984264323 200 200 200 200 200 200 200 200 200 