<?xml version="1.0"?>
<VTKFile type="UnstructuredGrid" version="0.1">
  <UnstructuredGrid>
    <Piece NumberOfPoints="10201" NumberOfCells="20000">
      <Points>
        <DataArray type="Float64" NumberOfComponents="3" format="ascii">0.99 0 0 1 0 0 1 0.01 0 0.99 0.01 0 0.98 0 0 1 0.02 0 0.98 0.01 0 0.99 0.02 0 0.97 0 0 1 0.03 0 0.97 0.01 0 0.98 0.02 0 0.99 0.03 0 0.96 0 0 1 0.04 0 0.96 0.01 0 0.97 0.02 0 0.98 0.03 0 0.99 0.04 0 0.9500000000000001 0 0 1 0.05 0 0.9500000000000001 0.01 0 0.96 0.02 0 0.97 0.03 0 0.98 0.04 0 0.99 0.05 0 0.9400000000000001 0 0 1 0.06 0 0.9400000000000001 0.01 0 0.9500000000000001 0.02 0 0.96 0.03 0 0.97 0.04 0 0.98 0.05 0 0.99 0.06 0 0.93 0 0 1 0.07000000000000001 0 0.93 0.01 0 0.9400000000000001 0.02 0 0.9500000000000001 0.03 0 0.96 0.04 0 0.97 0.05 0 0.98 0.06 0 0.99 0.07000000000000001 0 0.92 0 0 1 0.08 0 0.92 0.01 0 0.93 0.02 0 0.9400000000000001 0.03 0 0.9500000000000001 0.04 0 0.96 0.05 0 0.97 0.06 0 0.98 0.07000000000000001 0 0.99 0.08 0 0.91 0 0 1 0.09 0 0.91 0.01 0 0.92 0.02 0 0.93 0.03 0 0.9400000000000001 0.04 0 0.9500000000000001 0.05 0 0.96 0.06 0 0.97 0.07000000000000001 0 0.98 0.08 0 0.99 0.09 0 0.9 0 0 1 0.1 0 0.9 0.01 0 0.91 0.02 0 0.92 0.03 0 0.93 0.04 0 0.9400000000000001 0.05 0 0.9500000000000001 0.06 0 0.96 0.07000000000000001 0 0.97 0.08 0 0.98 0.09 0 0.99 0.1 0 0.89 0 0 1 0.11 0 0.89 0.01 0 0.9 0.02 0 0.91 0.03 0 0.92 0.04 0 0.93 0.05 0 0.9400000000000001 0.06 0 0.9500000000000001 0.07000000000000001 0 0.96 0.08 0 0.97 0.09 0 0.98 0.1 0 0.99 0.11 0 0.88 0 0 1 0.12 0 0.88 0.01 0 0.89 0.02 0 0.9 0.03 0 0.91 0.04 0 0.92 0.05 0 0.93 0.06 0 0.9400000000000001 0.07000000000000001 0 0.9500000000000001 0.08 0 0.96 0.09 0 0.97 0.1 0 0.98 0.11 0 0.99 0.12 0 0.87 0 0 1 0.13 0 0.87 0.01 0 0.88 0.02 0 0.89 0.03 0 0.9 0.04 0 0.91 0.05 0 0.92 0.06 0 0.93 0.07000000000000001 0 0.9400000000000001 0.08 0 0.9500000000000001 0.09 0 0.96 0.1 0 0.97 0.11 0 0.98 0.12 0 0.99 0.13 0 0.86 0 0 1 0.14 0 0.86 0.01 0 0.87 0.02 0 0.88 0.03 0 0.89 0.04 0 0.9 0.05 0 0.91 0.06 0 0.92 0.07000000000000001 0 0.93 0.08 0 0.9400000000000001 0.09 0 0.9500000000000001 0.1 0 0.96 0.11 0 0.97 0.12 0 0.98 0.13 0 0.99 0.14 0 0.85 0 0 1 0.15 0 0.85 0.01 0 0.86 0.02 0 0.87 0.03 0 0.88 0.04 0 0.89 0.05 0 0.9 0.06 0 0.91 0.07000000000000001 0 0.92 0.08 0 0.93 0.09 0 0.9400000000000001 0.1 0 0.9500000000000001 0.11 0 0.96 0.12 0 0.97 0.13 0 0.98 0.14 0 0.99 0.15 0 0.84 0 0 1 0.16 0 0.84 0.01 0 0.85 0.02 0 0.86 0.03 0 0.87 0.04 0 0.88 0.05 0 0.89 0.06 0 0.9 0.07000000000000001 0 0.91 0.08 0 0.92 0.09 0 0.93 0.1 0 0.9400000000000001 0.11 0 0.9500000000000001 0.12 0 0.96 0.13 0 0.97 0.14 0 0.98 0.15 0 0.99 0.16 0 0.8300000000000001 0 0 1 0.17 0 0.8300000000000001 0.01 0 0.84 0.02 0 0.85 0.03 0 0.86 0.04 0 0.87 0.05 0 0.88 0.06 0 0.89 0.07000000000000001 0 0.9 0.08 0 0.91 0.09 0 0.92 0.1 0 0.93 0.11 0 0.9400000000000001 0.12 0 0.9500000000000001 0.13 0 0.96 0.14 0 0.97 0.15 0 0.98 0.16 0 0.99 0.17 0 0.8200000000000001 0 0 1 0.18 0 0.8200000000000001 0.01 0 0.8300000000000001 0.02 0 0.84 0.03 0 0.85 0.04 0 0.86 0.05 0 0.87 0.06 0 0.88 0.07000000000000001 0 0.89 0.08 0 0.9 0.09 0 0.91 0.1 0 0.92 0.11 0 0.93 0.12 0 0.9400000000000001 0.13 0 0.9500000000000001 0.14 0 0.96 0.15 0 0.97 0.16 0 0.98 0.17 0 0.99 0.18 0 0.8100000000000001 0 0 1 0.19 0 0.8100000000000001 0.01 0 0.8200000000000001 0.02 0 0.8300000000000001 0.03 0 0.84 0.04 0 0.85 0.05 0 0.86 0.06 0 0.87 0.07000000000000001 0 0.88 0.08 0 0.89 0.09 0 0.9 0.1 0 0.91 0.11 0 0.92 0.12 0 0.93 0.13 0 0.9400000000000001 0.14 0 0.9500000000000001 0.15 0 0.96 0.16 0 0.97 0.17 0 0.98 0.18 0 0.99 0.19 0 0.8 0 0 1 0.2 0 0.8 0.01 0 0.8100000000000001 0.02 0 0.8200000000000001 0.03 0 0.8300000000000001 0.04 0 0.84 0.05 0 0.85 0.06 0 0.86 0.07000000000000001 0 0.87 0.08 0 0.88 0.09 0 0.89 0.1 0 0.9 0.11 0 0.91 0.12 0 0.92 0.13 0 0.93 0.14 0 0.9400000000000001 0.15 0 0.9500000000000001 0.16 0 0.96 0.17 0 0.97 0.18 0 0.98 0.19 0 0.99 0.2 0 0.79 0 0 1 0.21 0 0.79 0.01 0 0.8 0.02 0 0.8100000000000001 0.03 0 0.8200000000000001 0.04 0 0.8300000000000001 0.05 0 0.84 0.06 0 0.85 0.07000000000000001 0 0.86 0.08 0 0.87 0.09 0 0.88 0.1 0 0.89 0.11 0 0.9 0.12 0 0.91 0.13 0 0.92 0.14 0 0.93 0.15 0 0.9400000000000001 0.16 0 0.9500000000000001 0.17 0 0.96 0.18 0 0.97 0.19 0 0.98 0.2 0 0.99 0.21 0 0.78 0 0 1 0.22 0 0.78 0.01 0 0.79 0.02 0 0.8 0.03 0 0.8100000000000001 0.04 0 0.8200000000000001 0.05 0 0.8300000000000001 0.06 0 0.84 0.07000000000000001 0 0.85 0.08 0 0.86 0.09 0 0.87 0.1 0 0.88 0.11 0 0.89 0.12 0 0.9 0.13 0 0.91 0.14 0 0.92 0.15 0 0.93 0.16 0 0.9400000000000001 0.17 0 0.9500000000000001 0.18 0 0.96 0.19 0 0.97 0.2 0 0.98 0.21 0 0.99 0.22 0 0.77 0 0 1 0.23 0 0.77 0.01 0 0.78 0.02 0 0.79 0.03 0 0.8 0.04 0 0.8100000000000001 0.05 0 0.8200000000000001 0.06 0 0.8300000000000001 0.07000000000000001 0 0.84 0.08 0 0.85 0.09 0 0.86 0.1 0 0.87 0.11 0 0.88 0.12 0 0.89 0.13 0 0.9 0.14 0 0.91 0.15 0 0.92 0.16 0 0.93 0.17 0 0.9400000000000001 0.18 0 0.9500000000000001 0.19 0 0.96 0.2 0 0.97 0.21 0 0.98 0.22 0 0.99 0.23 0 0.76 0 0 1 0.24 0 0.76 0.01 0 0.77 0.02 0 0.78 0.03 0 0.79 0.04 0 0.8 0.05 0 0.8100000000000001 0.06 0 0.8200000000000001 0.07000000000000001 0 0.8300000000000001 0.08 0 0.84 0.09 0 0.85 0.1 0 0.86 0.11 0 0.87 0.12 0 0.88 0.13 0 0.89 0.14 0 0.9 0.15 0 0.91 0.16 0 0.92 0.17 0 0.93 0.18 0 0.9400000000000001 0.19 0 0.9500000000000001 0.2 0 0.96 0.21 0 0.97 0.22 0 0.98 0.23 0 0.99 0.24 0 0.75 0 0 1 0.25 0 0.75 0.01 0 0.76 0.02 0 0.77 0.03 0 0.78 0.04 0 0.79 0.05 0 0.8 0.06 0 0.8100000000000001 0.07000000000000001 0 0.8200000000000001 0.08 0 0.8300000000000001 0.09 0 0.84 0.1 0 0.85 0.11 0 0.86 0.12 0 0.87 0.13 0 0.88 0.14 0 0.89 0.15 0 0.9 0.16 0 0.91 0.17 0 0.92 0.18 0 0.93 0.19 0 0.9400000000000001 0.2 0 0.9500000000000001 0.21 0 0.96 0.22 0 0.97 0.23 0 0.98 0.24 0 0.99 0.25 0 0.74 0 0 1 0.26 0 0.74 0.01 0 0.75 0.02 0 0.76 0.03 0 0.77 0.04 0 0.78 0.05 0 0.79 0.06 0 0.8 0.07000000000000001 0 0.8100000000000001 0.08 0 0.8200000000000001 0.09 0 0.8300000000000001 0.1 0 0.84 0.11 0 0.85 0.12 0 0.86 0.13 0 0.87 0.14 0 0.88 0.15 0 0.89 0.16 0 0.9 0.17 0 0.91 0.18 0 0.92 0.19 0 0.93 0.2 0 0.9400000000000001 0.21 0 0.9500000000000001 0.22 0 0.96 0.23 0 0.97 0.24 0 0.98 0.25 0 0.99 0.26 0 0.73 0 0 1 0.27 0 0.73 0.01 0 0.74 0.02 0 0.75 0.03 0 0.76 0.04 0 0.77 0.05 0 0.78 0.06 0 0.79 0.07000000000000001 0 0.8 0.08 0 0.8100000000000001 0.09 0 0.8200000000000001 0.1 0 0.8300000000000001 0.11 0 0.84 0.12 0 0.85 0.13 0 0.86 0.14 0 0.87 0.15 0 0.88 0.16 0 0.89 0.17 0 0.9 0.18 0 0.91 0.19 0 0.92 0.2 0 0.93 0.21 0 0.9400000000000001 0.22 0 0.9500000000000001 0.23 0 0.96 0.24 0 0.97 0.25 0 0.98 0.26 0 0.99 0.27 0 0.72 0 0 1 0.28 0 0.72 0.01 0 0.73 0.02 0 0.74 0.03 0 0.75 0.04 0 0.76 0.05 0 0.77 0.06 0 0.78 0.07000000000000001 0 0.79 0.08 0 0.8 0.09 0 0.8100000000000001 0.1 0 0.8200000000000001 0.11 0 0.8300000000000001 0.12 0 0.84 0.13 0 0.85 0.14 0 0.86 0.15 0 0.87 0.16 0 0.88 0.17 0 0.89 0.18 0 0.9 0.19 0 0.91 0.2 0 0.92 0.21 0 0.93 0.22 0 0.9400000000000001 0.23 0 0.9500000000000001 0.24 0 0.96 0.25 0 0.97 0.26 0 0.98 0.27 0 0.99 0.28 0 0.71 0 0 1 0.29 0 0.71 0.01 0 0.72 0.02 0 0.73 0.03 0 0.74 0.04 0 0.75 0.05 0 0.76 0.06 0 0.77 0.07000000000000001 0 0.78 0.08 0 0.79 0.09 0 0.8 0.1 0 0.8100000000000001 0.11 0 0.8200000000000001 0.12 0 0.8300000000000001 0.13 0 0.84 0.14 0 0.85 0.15 0 0.86 0.16 0 0.87 0.17 0 0.88 0.18 0 0.89 0.19 0 0.9 0.2 0 0.91 0.21 0 0.92 0.22 0 0.93 0.23 0 0.9400000000000001 0.24 0 0.9500000000000001 0.25 0 0.96 0.26 0 0.97 0.27 0 0.98 0.28 0 0.99 0.29 0 0.7000000000000001 0 0 1 0.3 0 0.7000000000000001 0.01 0 0.71 0.02 0 0.72 0.03 0 0.73 0.04 0 0.74 0.05 0 0.75 0.06 0 0.76 0.07000000000000001 0 0.77 0.08 0 0.78 0.09 0 0.79 0.1 0 0.8 0.11 0 0.8100000000000001 0.12 0 0.8200000000000001 0.13 0 0.8300000000000001 0.14 0 0.84 0.15 0 0.85 0.16 0 0.86 0.17 0 0.87 0.18 0 0.88 0.19 0 0.89 0.2 0 0.9 0.21 0 0.91 0.22 0 0.92 0.23 0 0.93 0.24 0 0.9400000000000001 0.25 0 0.9500000000000001 0.26 0 0.96 0.27 0 0.97 0.28 0 0.98 0.29 0 0.99 0.3 0 0.6900000000000001 0 0 1 0.31 0 0.6900000000000001 0.01 0 0.7000000000000001 0.02 0 0.71 0.03 0 0.72 0.04 0 0.73 0.05 0 0.74 0.06 0 0.75 0.07000000000000001 0 0.76 0.08 0 0.77 0.09 0 0.78 0.1 0 0.79 0.11 0 0.8 0.12 0 0.8100000000000001 0.13 0 0.8200000000000001 0.14 0 0.8300000000000001 0.15 0 0.84 0.16 0 0.85 0.17 0 0.86 0.18 0 0.87 0.19 0 0.88 0.2 0 0.89 0.21 0 0.9 0.22 0 0.91 0.23 0 0.92 0.24 0 0.93 0.25 0 0.9400000000000001 0.26 0 0.9500000000000001 0.27 0 0.96 0.28 0 0.97 0.29 0 0.98 0.3 0 0.99 0.31 0 0.68 0 0 1 0.32 0 0.68 0.01 0 0.6900000000000001 0.02 0 0.7000000000000001 0.03 0 0.71 0.04 0 0.72 0.05 0 0.73 0.06 0 0.74 0.07000000000000001 0 0.75 0.08 0 0.76 0.09 0 0.77 0.1 0 0.78 0.11 0 0.79 0.12 0 0.8 0.13 0 0.8100000000000001 0.14 0 0.8200000000000001 0.15 0 0.8300000000000001 0.16 0 0.84 0.17 0 0.85 0.18 0 0.86 0.19 0 0.87 0.2 0 0.88 0.21 0 0.89 0.22 0 0.9 0.23 0 0.91 0.24 0 0.92 0.25 0 0.93 0.26 0 0.9400000000000001 0.27 0 0.9500000000000001 0.28 0 0.96 0.29 0 0.97 0.3 0 0.98 0.31 0 0.99 0.32 0 0.67 0 0 1 0.33 0 0.67 0.01 0 0.68 0.02 0 0.6900000000000001 0.03 0 0.7000000000000001 0.04 0 0.71 0.05 0 0.72 0.06 0 0.73 0.07000000000000001 0 0.74 0.08 0 0.75 0.09 0 0.76 0.1 0 0.77 0.11 0 0.78 0.12 0 0.79 0.13 0 0.8 0.14 0 0.8100000000000001 0.15 0 0.8200000000000001 0.16 0 0.8300000000000001 0.17 0 0.84 0.18 0 0.85 0.19 0 0.86 0.2 0 0.87 0.21 0 0.88 0.22 0 0.89 0.23 0 0.9 0.24 0 0.91 0.25 0 0.92 0.26 0 0.93 0.27 0 0.9400000000000001 0.28 0 0.9500000000000001 0.29 0 0.96 0.3 0 0.97 0.31 0 0.98 0.32 0 0.99 0.33 0 0.66 0 0 1 0.34 0 0.66 0.01 0 0.67 0.02 0 0.68 0.03 0 0.6900000000000001 0.04 0 0.7000000000000001 0.05 0 0.71 0.06 0 0.72 0.07000000000000001 0 0.73 0.08 0 0.74 0.09 0 0.75 0.1 0 0.76 0.11 0 0.77 0.12 0 0.78 0.13 0 0.79 0.14 0 0.8 0.15 0 0.8100000000000001 0.16 0 0.8200000000000001 0.17 0 0.8300000000000001 0.18 0 0.84 0.19 0 0.85 0.2 0 0.86 0.21 0 0.87 0.22 0 0.88 0.23 0 0.89 0.24 0 0.9 0.25 0 0.91 0.26 0 0.92 0.27 0 0.93 0.28
[...]
      <PointData Vectors="f_38">
        <DataArray type="Float64" Name="real_f_38" format="ascii" NumberOfComponents="3">0 0 0 0 0 0 0 0 0 -3.79956e-12 0 0 0 0 0 0 0 0 -2.98715e-05 0 0 2.98715e-05 0 0 0 0 0 0 0 0 -0.000119265 0 0 -1.51336e-11 0 0 0.000119265 0 0 0 0 0 0 0 0 -0.000297272 0 0 -0.000148934 0 0 0.000148934 0 0 0.000297272 0 0 0 0 0 0 0 0 -0.000592132 0 0 -0.000475125 0 0 -3.37849e-11 0 0 0.000475125 0 0 0.000592132 0 0 0 0 0 0 0 0 -0.00103094 0 0 -0.00103505 0 0 -0.000414846 0 0 0.000414846 0 0 0.00103505 0 0 0.00103094 0 0 0 0 0 0 0 0 -0.00163938 0 0 -0.00188292 0 0 -0.00118033 0 0 -5.93873e-11 0 0 0.00118033 0 0 0.00188292 0 0 0.00163938 0 0 0 0 0 0 0 0 -0.00244147 0 0 -0.00307009 0 0 -0.00237778 0 0 -0.000882407 0 0 0.000882407 0 0 0.00237778 0 0 0.00307009 0 0 0.00244147 0 0 0 0 0 0 0 0 -0.0034593 0 0 -0.00464459 0 0 -0.00408424 0 0 -0.0023408 0 0 -9.14341e-11 0 0 0.0023408 0 0 0.00408424 0 0 0.00464459 0 0 0.0034593 0 0 0 0 0 0 0 0 -0.00471282 0 0 -0.00665063 0 0 -0.00637177 0 0 -0.00447797 0 0 -0.00160245 0 0 0.00160245 0 0 0.00447797 0 0 0.00637177 0 0 0.00665063 0 0 0.00471282 0 0 0 0 0 0 0 0 -0.00621964 0 0 -0.00912811 0 0 -0.00930669 0 0 -0.00739 0 0 -0.00405344 0 0 -1.29288e-10 0 0 0.00405344 0 0 0.00739 0 0 0.00930669 0 0 0.00912811 0 0 0.00621964 0 0 0 0 0 0 0 0 -0.00799482 0 0 -0.0121122 0 0 -0.0129489 0 0 -0.0111653 0 0 -0.00747315 0 0 -0.00262079 0 0 0.00262079 0 0 0.00747315 0 0 0.0111653 0 0 0.0129489 0 0 0.0121122 0 0 0.00799482 0 0 0 0 0 0 0 0 -0.0100507 0 0 -0.0156332 0 0 -0.0173512 0 0 -0.0158839 0 0 -0.0119722 0 0 -0.00640417 0 0 -1.72191e-10 0 0 0.00640417 0 0 0.0119722 0 0 0.0158839 0 0 0.0173512 0 0 0.0156332 0 0 0.0100507 0 0 0 0 0 0 0 0 -0.0123969 0 0 -0.0197157 0 0 -0.0225588 0 0 -0.0216161 0 0 -0.0176504 0 0 -0.0114829 0 0 -0.00397729 0 0 0.00397728 0 0 0.0114829 0 0 0.0176504 0 0 0.0216161 0 0 0.0225588 0 0 0.0197157 0 0 0.0123969 0 0 0 0 0 0 0 0 -0.01504 0 0 -0.0243788 0 0 -0.028609 0 0 -0.0284224 0 0 -0.024596 0 0 -0.0179771 0 0 -0.00946608 0 0 -2.19276e-10 0 0 0.00946608 0 0 0.0179771 0 0 0.024596 0 0 0.0284224 0 0 0.028609 0 0 0.0243788 0 0 0.01504 0 0 0 0 0 0 0 0 -0.0179835 0 0 -0.0296358 0 0 -0.0355304 0 0 -0.0363524 0 0 -0.0328847 0 0 -0.0259925 0 0 -0.0166065 0 0 -0.00570496 0 0 0.00570496 0 0 0.0166065 0 0 0.0259925 0 0 0.0328847 0 0 0.0363524 0 0 0.0355304 0 0 0.0296358 0 0 0.0179835 0 0 0 0 0 0 0 0 -0.0212278 0 0 -0.0354937 0 0 -0.0433428 0 0 -0.0454444 0 0 -0.0425785 0 0 -0.0356201 0 0 -0.0255223 0 0 -0.0132979 0 0 -2.69583e-10 0 0 0.0132979 0 0 0.0255223 0 0 0.0356201 0 0 0.0425785 0 0 0.0454444 0 0 0.0433428 0 0 0.0354937 0 0 0.0212278 0 0 0 0 0 0 0 0 -0.0247704 0 0 -0.0419536 0 0 -0.052057 0 0 -0.055725 0 0 -0.0537254 0 0 -0.0469345 0 0 -0.0363196 0 0 -0.0229204 0 0 -0.0078293 0 0 0.0078293 0 0 0.0229204 0 0 0.0363196 0 0 0.0469345 0 0 0.0537254 0 0 0.055725 0 0 0.052057 0 0 0.0419536 0 0 0.0247704 0 0 0 0 0 0 0 0 -0.0286053 0 0 -0.04901 0 0 -0.0616744 0 0 -0.0672085 0 0 -0.0663588 0 0 -0.0599936 0 0 -0.0490858 0 0 -0.034694 0 0 -0.0179425 0 0 -3.22076e-10 0 0 0.0179425 0 0 0.034694 0 0 0.0490858 0 0 0.0599936 0 0 0.0663588 0 0 0.0672085 0 0 0.0616744 0 0 0.04901 0 0 0.0286053 0 0 0 0 0 0 0 0 -0.0327238 0 0 -0.0566515 0 0 -0.0721872 0 0 -0.079897 0 0 -0.0804968 0 0 -0.0748375 0 0 -0.0638885 0 0 -0.0487188 0 0 -0.0304766 0 0 -0.0103676 0 0 0.0103676 0 0 0.0304766 0 0 0.0487188 0 0 0.0638885 0 0 0.0748375 0 0 0.0804968 0 0 0.079897 0 0 0.0721872 0 0 0.0566515 0 0 0.0327238 0 0 0 0 0 0 0 0 -0.037114 0 0 -0.0648603 0 0 -0.0835781 0 0 -0.0937802 0 0 -0.0961422 0 0 -0.0914883 0 0 -0.080775 0 0 -0.0650726 0 0 -0.0455446 0 0 -0.023426 0 0 -3.75656e-10 0 0 0.023426 0 0 0.0455446 0 0 0.0650726 0 0 0.080775 0 0 0.0914883 0 0 0.0961422 0 0 0.0937802 0 0 0.0835781 0 0 0.0648603 0 0 0.037114 0 0 0 0 0 0 0 0 -0.0417608 0 0 -0.0736126 0 0 -0.0958205 0 0 -0.108835 0 0 -0.113282 0 0 -0.109949 0 0 -0.0997712 0 0 -0.0838095 0 0 -0.0632343 0 0 -0.0393013 0 0 -0.0133285 0 0 0.0133285 0 0 0.0393013 0 0 0.0632343 0 0 0.0838095 0 0 0.0997712 0 0 0.109949 0 0 0.113282 0 0 0.108835 0 0 0.0958205 0 0 0.0736126 0 0 0.0417608 0 0 0 0 0 0 0 0 -0.0466465 0 0 -0.0828785 0 0 -0.108879 0 0 -0.125026 0 0 -0.131888 0 0 -0.130206 0 0 -0.120882 0 0 -0.10496 0 0 -0.0836071 0 0 -0.0580914 0 0 -0.0297569 0 0 -4.29185e-10 0 0 0.0297569 0 0 0.0580914 0 0 0.0836071 0 0 0.10496 0 0 0.120882 0 0 0.130206 0 0 0.131888 0 0 0.125026 0 0 0.108879 0 0 0.0828785 0 0 0.0466465 0 0 0 0 0 0 0 0 -0.0517508 0 0 -0.0926227 0 0 -0.122708 0 0 -0.142307 0 0 -0.151917 0 0 -0.152224 0 0 -0.144089 0 0 -0.128529 0 0 -0.106698 0 0 -0.0798652 0 0 -0.0493937 0 0 -0.0167117 0 0 0.0167117 0 0 0.0493937 0 0 0.0798652 0 0 0.106698 0 0 0.128529 0 0 0.144089 0 0 0.152224 0 0 0.151917 0 0 0.142307 0 0 0.122708 0 0 0.0926227 0 0 0.0517508 0 0 0 0 0 0 0 0 -0.0570504 0 0 -0.102804 0 0 -0.137256 0 0 -0.160617 0 0 -0.173309 0 0 -0.175952 0 0 -0.169355 0 0 -0.154498 0 0 -0.132513 0 0 -0.104662 0 0 -0.0723152 0 0 -0.0369254 0 0 -4.81502e-10 0 0 0.0369254 0 0 0.0723152 0 0 0.104662 0 0 0.132513 0 0 0.154498 0 0 0.169355 0 0 0.175952 0 0 0.173309 0 0 0.160617 0 0 0.137256 0 0 0.102804 0 0 0.0570504 0 0 0 0 0 0 0 0 -0.0625201 0 0 -0.113377 0 0 -0.152461 0 0 -0.179887 0 0 -0.195991 0 0 -0.201319 0 0 -0.196619 0 0 -0.182823 0 0 -0.161032 0 0 -0.132489 0 0 -0.0985652 0 0 -0.0607255 0 0 -0.0205077 0 0 0.0205077 0 0 0.0607255 0 0 0.0985652 0 0 0.132489 0 0 0.161032 0 0 0.182823 0 0 0.196619 0 0 0.201319 0 0 0.195991 0 0 0.179887 0 0 0.152461 0 0 0.113377 0 0 0.0625201 0 0 0 0 0 0 0 0 -0.0681321 0 0 -0.12429 0 0 -0.168254 0 0 -0.200034 0 0 -0.219874 0 0 -0.228236 0 0 -0.225799 0 0 -0.213436 0 0 -0.192206 0 0 -0.163326 0 0 -0.128154 0 0 -0.0881603 0 0 -0.0449034 0 0 -5.31442e-10 0 0 0.0449034 0 0 0.0881603 0 0 0.128154 0 0 0.163326 0 0 0.192206 0 0 0.213436 0 0 0.225799 0 0 0.228236 0 0 0.219874 0 0 0.200034 0 0 0.168254 0 0 0.12429 0 0 0.0681321 0 0 0 0 0 0 0 0 -0.073857 0 0 -0.135489 0 0 -0.184558 0 0 -0.220968 0 0 -0.244857 0 0 -0.2566 0 0 -0.256792 0 0 -0.246244 0 0 -0.225959 0 0 -0.197118 0 0 -0.161058 0 0 -0.119242 0 0 -0.0732409 0 0 -0.0246978 0 0 0.0246978 0 0 0.0732409 0 0 0.119242 0 0 0.161058 0 0 0.197118 0 0 0.225959 0 0 0.246244 0 0 0.256792 0 0 0.2566 0 0 0.244857 0 0 0.220968 0 0 0.184558 0 0 0.135489 0 0 0.073857 0 0 0 0 0 0 0 0 -0.0796635 0 0 -0.146913 0 0 -0.201292 0 0 -0.242585 0 0 -0.270826 0 0 -0.286287 0 0 -0.289478 0 0 -0.281131 0 0 -0.262188 0 0 -0.233783 0 0 -0.197219 0 0 -0.153946 0 0 -0.105534 0 0 -0.0536445 0 0 -5.77857e-10 0 0 0.0536445 0 0 0.105534 0 0 0.153946 0 0 0.197219 0 0 0.233783 0 0 0.262188 0 0 0.281131 0 0 0.289478 0 0 0.286287 0 0 0.270826 0 0 0.242585 0 0 0.201292 0 0 0.146913 0 0 0.0796635 0 0 0 0 0 0 0 0 -0.0855188 0 0 -0.158502 0 0 -0.218366 0 0 -0.264778 0 0 -0.297654 0 0 -0.317162 0 0 -0.323714 0 0 -0.317957 0 0 -0.300762 0 0 -0.273206 0 0 -0.236547 0 0 -0.192212 0 0 -0.141759 0 0 -0.0868571 0 0 -0.0292543 0 0 0.0292543 0 0 0.0868571 0 0 0.141759 0 0 0.192212 0 0 0.236547 0 0 0.273206 0 0 0.300762 0 0 0.317957 0 0 0.323714 0 0 0.317162 0 0 0.297654 0 0 0.264778 0 0 0.218366 0 0 0.158502 0 0 0.0855188 0 0 0 0 0 0 0 0 -0.0913891 0 0 -0.170189 0 0 -0.235688 0 0 -0.287428 0 0 -0.325205 0 0 -0.349073 0 0 -0.359342 0 0 -0.356563 0 0 -0.341528 0 0 -0.315243 0 0 -0.278919 0 0 -0.23394 0 0 -0.181849 0 0 -0.12431 0 0 -0.0630845 0 0 -6.19637e-10 0 0 0.0630845 0 0 0.12431 0 0 0.181849 0 0 0.23394 0 0 0.278919 0 0 0.315243 0 0 0.341528 0 0 0.356563 0 0 0.359342 0 0 0.349073 0 0 0.325205 0 0 0.287428 0 0 0.235688 0 0 0.170189 0 0 0.0913891 0 0 0 0 0 0 0 0 -0.0972396 0 0 -0.181906 0 0 -0.253159 0 0 -0.31041 0 0 -0.353331 0 0 -0.381857 0 0 -0.396186 0 0 -0.396768 0 0 -0.384305 0 0 -0.359725 0 0 -0.324177 0 0 -0.278999 0 0 -0.2257 0 0 -0.165934 0 0 -0.101465 0 0 -0.0341407 0 0 0.0341407 0 0 0.101465 0 0 0.165934 0 0 0.2257 0 0 0.278999 0 0 0.324177 0 0 0.359725 0 0 0.384305 0 0 0.396768 0 0 0.396186 0 0 0.381857 0 0 0.353331 0 0 0.31041 0 0 0.253159 0 0 0.181906 0 0 0.0972396 0 0 0 0 0 0 0 0 -0.103035 0 0 -0.193585 0 0 -0.270678 0 0 -0.333594 0 0 -0.381878 0 0 -0.415338 0 0 -0.434055 0 0 -0.438373 0 0 -0.42889 0 0 -0.406453 0 0 -0.372135 0 0 -0.327218 0 0 -0.27317 0 0 -0.211619 0 0 -0.144324 0 0 -0.073142 0 0 -6.55723e-10 0 0 0.073142 0 0 0.144324 0 0 0.211619 0 0 0.27317 0 0 0.327218 0 0 0.372135 0 0 0.406453 0 0 0.42889 0 0 0.438373 0 0 0.434055 0 0 0.415338 0 0 0.381878 0 0 0.333594 0 0 0.270678 0 0 0.193585 0 0 0.103035 0 0 0 0 0 0 0 0 -0.108739 0 0 -0.205154 0 0 -0.28814 0 0 -0.356846 0 0 -0.410682 0 0 -0.44933 0 0 -0.472747 0 0 -0.481159 0 0 -0.475062 0 0 -0.455204 0 0 -0.422577 0 0 -0.378396 0 0 -0.324078 0 0 -0.261214 0 0 -0.191545 0 0 -0.11693 0 0 -0.0393122 0 0 0.0393122 0 0 0.11693 0 0 0.191545 0 0 0.261214 0 0 0.324078 0 0 0.378396 0 0 0.422577 0 0 0.455204 0 0 0.475062 0 0 0.481159 0 0 0.472747 0 0 0.44933 0 0 0.410682 0 0 0.356846 0 0 0.28814 0 0 0.205154 0 0 0.108739 0 0 0 0 0 0 0 0 -0.114317 0 0 -0.216542 0 0 -0.30544 0 0 -0.380025 0 0 -0.439575 0 0 -0.483638 0 0 -0.512043 0 0 -0.524896 0 0 -0.522576 0 0 -0.50573 0 0 -0.475259 0 0 -0.432299 0 0 -0.378206 0 0 -0.314525 0 0 -0.242968 0 0 -0.165383 0 0 -0.0837195 0 0 -6.85137e-10 0 0 0.0837195 0 0 0.165383 0 0 0.242968 0 0 0.314525 0 0 0.378206 0 0 0.432299 0 0 0.475258 0 0 0.50573 0 0 0.522576 0 0 0.524896 0 0 0.512043 0 0 0.483638 0 0 0.439575 0 0 0.380025 0 0 0.30544 0 0 0.216542 0 0 0.114317 0 0 0 0 0 0 0 0 -0.119732 0 0 -0.227677 0 0 -0.32247 0 0 -0.402992 0 0 -0.468384 0 0 -0.518062 0 0 -0.551719 0 0 -0.569336 0 0 -0.571172 0 0 -0.557763 0 0 -0.52991 0 0 -0.488663 0 0 -0.435303 0 0 -0.371321 0 0 -0.298389 0 0 -0.218331 0 0 -0.133095 0 0 -0.0447162 0 0 0.0447162 0 0 0.133095 0 0 0.218331 0 0 0.298389 0 0 0.371321 0 0 0.435303 0 0 0.488663 0 0 0.52991 0 0 0.557763 0 0 0.571172 0 0 0.569336 0 0 0.551719 0 0 0.518062 0 0 0.468384 0 0 0.402992 0 0 0.32247 0 0 0.227677 0 0 0.119732 0 0 0 0 0 0 0 0 -0.124951 0 0 -0.23849 0 0 -0.339124 0 0 -0.425604 0 0 -0.496934 0 0 -0.552392 0 0 -0.59154 0 0 -0.614223 0 0 -0.620575 0 0 -0.611016 0 0 -0.586237 0 0 -0.547194 0 0 -0.495085 0 0 -0.431334 0 0 -0.357562 0 0 -0.275561 0 0 -0.187262 0 0 -0.0947048 0 0 -7.06984e-10 0 0 0.0947048 0 0 0.187262 0 0 0.275561 0 0 0.357562 0 0 0.431334 0 0 0.495085 0 0 0.547194 0 0 0.586237 0 0 0.611016 0 0 0.620575 0 0 0.614223 0 0 0.59154 0 0 0.552392 0 0 0.496934 0 0 0.425604 0 0 0.339124 0 0 0.23849 0 0 0.124951 0 0 0 0 0 0 0 0 -0.129939 0 0 -0.248909 0 0 -0.355296 0 0 -0.447718 0 0 -0.525046 0 0 -0.58642 0 0 -0.631264 0 0 -0.659289 0 0 -0.670497 0 0 -0.665184 0 0 -0.643926 0 0 -0.607575 0 0 -0.557238 0 0 -0.49426 0 0 -0.420203 0 0 -0.336813 0 0 -0.245995 0 0 -0.149782 0 0 -0.0502931 0 0 0.0502931 0 0 0.149782 0 0 0.245995 0 0 0.336813 0 0 0.420203 0 0 0.49426 0 0 0.557238 0 0 0.607575 0 0 0.643926 0 0 0.665184 0 0 0.670497 0 0 0.659289 0 0 0.631264 0 0 0.58642 0 0 0.525046 0 0 0.447718 0 0 0.355296 0 0 0.248909 0 0 0.129939 0 0 0 0 0 0 0 0 -0.134663 0 0 -0.258868 0 0 -0.370881 0 0 -0.469193 0 0 -0.552543 0 0 -0.619933 0 0 -0.670648 0 0 -0.70426 0 0 -0.720638 0 0 -0.719947 0 0 -0.702643 0 0 -0.669464 0 0 -0.621418 0 0 -0.559763 0 0 -0.485989 0 0 -0.401786 0 0 -0.309023 0 0 -0.209712 0 0 -0.105972 0 0 -7.20482e-10 0 0 0.105972 0 0 0.209712 0 0 0.309023 0 0 0.401786 0 0 0.485989 0 0 0.559763 0 0 0.621418 0 0 0.669464 0 0 0.702643 0 0 0.719947 0 0 0.720638 0 0 0.70426 0 0 0.670648 0 0 0.619933 0 0 0.552543 0 0 0.469193 0 0 0.370881 0 0 0.258868 0 0 0.134663 0 0 0 0 0 0 0 0 -0.139093 0 0 -0.268301 0 0 -0.385778 0 0 -0.489892 0 0 -0.579249 0 0 -0.652718 0 0 -0.709443 0 0 -0.748857 0 0 -0.770691 0 0 -0.774976 0 0 -0.762039 0 0 -0.732501 0 0 -0.687259 0 0 -0.627477 0 0 -0.554562 0 0 -0.47014 0 0 -0.37603 0 0 -0.274211 0 0 -0.166793 0 0 -0.0559772 0 0 0.0559771 0 0 0.166793 0 0 0.274211 0 0 0.37603 0 0 0.47014 0 0 0.554562 0 0 0.627477 0 0 0.687259 0 0 0.732501 0 0 0.762039 0 0 0.774976 0 0 0.770691 0 0 0.748857 0 0 0.709443 0 0 0.652718 0 0 0.579249 0 0 0.489892 0 0 0.385778 0 0 0.268301 0 0 0.139093 0 0 0 0 0 0 0 0 -0.143198 0 0 -0.277145 0 0 -0.399888 0 0 -0.509677 0 0 -0.604991 0 0 -0.684564 0 0 -0.747403 0 0 -0.792799 0 0 -0.820344 0 0 -0.82993 0 0 -0.821753 0 0 -0.796306 0 0 -0.754372 0 0 -0.69701 0 0 -0.625535 0 0 -0.541497 0 0 -0.446656 0 0 -0.342948 0 0 -0.232458 0 0 -0.117385 0 0 -7.24964e-10 0 0 0.117385 0 0 0.232458 0 0 0.342948 0 0 0.446656 0 0 0.541497 0 0 0.625535 0 0 0.69701 0 0 0.754372 0 0 0.796306 0 0 0.821753 0 0 0.82993 0 0 0.820344 0 0 0.792799 0 0 0.747403 0 0 0.684564 0 0 0.604991 0 0 0.509677 0 0 0.399888 0 0 0.277145 0 0 0.143198 0 0 0 0 0 0 0 0 -0.146951 0 0 -0.285342 0 0 -0.413119 0 0 -0.528419 0 0 -0.6296 0 0 -0.715265 0 0 -0.784282 0 0 -0.835805 0 0 -0.869281 0 0 -0.884464 0 0 -0.881412 0 0 -0.860487 0 0 -0.822349 0 0 -0.767945 0 0 -0.69849 0 0 -0.615447 0 0 -0.520504 0 0 -0.415547 0 0 -0.302624 0 0 -0.183915 0 0 -0.0616972 0 0 0.0616972 0 0 0.183915 0 0 0.302624 0 0 0.415547 0 0 0.520504 0 0 0.615447 0 0 0.69849 0 0 0.767945 0 0 0.822349 0 0 0.860487 0 0 0.881412 0 0 0.884464 0 0 0.869281 0 0 0.835805 0 0 0.784282 0 0 0.715265 0 0 0.6296 0 0 0.528419 0 0 0.413119 0 0 0.285342 0 0 0.146951 0 0 0 0 0 0 0 0 -0.150326 0 0 -0.292835 0 0 -0.425381 0 0 -0.545993 0 0 -0.652913 0 0 -0.744617 0 0 -0.81984 0 0 -0.877594 0 0 -0.917187 0 0 -0.938229 0 0 -0.940637 0 0 -0.92464 0 0 -0.890768 0 0 -0.839847 0 0 -0.772984 0 0 -0.691547 0 0 -0.597143 0 0 -0.491592 0 0 -0.376897 0 0 -0.255209 0 0 -0.128796 0 0 -7.19899e-10 0 0 0.128796 0 0 0.255209 0 0 0.376897 0 0 0.491592 0 0 0.597143 0 0 0.691547 0 0 0.772984 0 0 0.839847 0 0 0.890768 0 0 0.92464 0 0 0.940637 0 0 0.938229 0 0 0.917187 0 0 0.877594 0 0 0.81984 0 0 0.744617 0 0 0.652913 0 0 0.545993 0 0 0.425381 0 0 0.292835 0 0 0.150326 0 0 0 0 0 0 0 0 -0.153302 0 0 -0.299576 0 0 -0.436591 0 0 -0.562281 0 0 -0.674775 0 0 -0.772427 0 0 -0.85384 0 0 -0.917893 0 0 -0.963749 0 0 -0.990875 0 0 -0.999049 0 0 -0.988356 0 0 -0.959194 0 0 -0.912263 0 0 -0.848554 0 0 -0.769329 0 0 -0.676105 0 0 -0.570629 0 0 -0.454843 0 0 -0.33086 0 0 -0.200924 0 0 -0.067378 0 0 0.067378 0 0 0.200924 0 0 0.33086 0 0 0.454843 0 0 0.570629 0 0 0.676105 0 0 0.769329 0 0 0.848554 0 0 0.912263 0 0 0.959194 0 0 0.988356 0 0 0.999049 0 0 0.990875 0 0 0.963749 0 0 0.917893 0 0 0.85384 0 0 0.772427 0 0 0.674775 0 0 0.562281 0 0 0.436591 0 0 0.299576 0 0 0.153302 0 0 0 0 0 0 0 0 -0.155856 0 0 -0.305517 0 0 -0.446675 0 0 -0.577174 0 0 -0.695039 0 0 -0.798507 0 0 -0.886058 0 0 -0.956433 0 0 -1.00866 0 0 -1.04206 0 0 -1.05626 0 0 -1.05122 0 0 -1.02719 0 0 -0.984729 0 0 -0.924718 0 0 -0.848302 0 0 -0.756899 0 0 -0.652169 0 0 -0.535987 0 0 -0.410413 0 0 -0.277658 0 0 -0.140052 0 0 -7.04899e-10 0 0 0.140052 0 0 0.277658 0 0 0.410413 0 0 0.535987 0 0 0.652169 0 0 0.756899 0 0 0.848302 0 0 0.924718 0 0 0.984729 0 0 1.02719 0 0 1.05122 0 0 1.05626 0 0 1.04206 0 0 1.00866 0 0 0.956433 0 0 0.886058 0 0 0.798507 0 0 0.695039 0 0 0.577174 0 0 0.446675 0 0 0.305517 0 0 0.155856 0 0 0 0 0 0 0 0 -0.157973 0 0 -0.310618 0 0 -0.455563 0 0 -0.590569 0 0 -0.713566 0 0 -0.822682 0 0 -0.916275 0 0 -0.992957 0 0 -1.05162 0 0 -1.09144 0 0 -1.1119 0 0 -1.11282 0 0 -1.0943 0 0 -1.05677 0 0 -1.00098 0 0 -0.927958 0 0 -0.839007 0 0 -0.735696 0 0 -0.619819 0 0 -0.493374 0 0 -0.358529 0 0 -0.217584 0 0 -0.0729413 0 0 0.0729413 0 0 0.217584 0 0 0.358529 0 0 0.493374 0 0 0.619819 0 0 0.735696 0 0 0.839007 0 0 0.927958 0 0 1.00098 0 0 1.05677 0 0 1.0943 0 0 1.11282 0 0 1.1119 0 0 1.09144 0 0 1.05162 0 0 0.992957 0 0 0.916275 0 0 0.822682 0 0 0.713566 0 0 0.590569 0 0 0.455563 0 0 0.310618 0 0 0.157973 0 0 0 0 0 0 0 0 -0.159637 0 0 -0.314844 0 0 -0.463194 0 0 -0.602377 0 0 -0.730233 0 0 -0.844788 0 0 -0.944288 0 0 -1.02722 0 0 -1.09233 0 0 -1.13868 0 0 -1.16559 0 0 -1.17273 0 0 -1.16008 0 0 -1.12791 0 0 -1.07684 0 0 -1.00777 0 0 -0.921892 0 0 -0.820665 0 0 -0.705797 0 0 -0.579212 0 0 -0.443021 0 0 -0.299488 0 0 -0.150994 0 0 -6.79726e-10 0 0 0.150994 0 0 0.299488 0 0 0.443021 0 0 0.579212 0 0 0.705797 0 0 0.820665 0 0 0.921892 0 0 1.00777 0 0 1.07684 0 0 1.12791 0 0 1.16008 0 0 1.17273 0 0 1.16559 0 0 1.13868 0 0 1.09233 0 0 1.02722 0 0 0.944288 0 0 0.844788 0 0 0.730233 0 0 0.602377 0 0 0.463194 0 0 0.314844 0 0 0.159637 0 0 0 0 0 0 0 0 -0.160837 0 0 -0.318166 0 0 -0.469516 0 0 -0.612515 0 0 -0.744923 0 0 -0.864674 0 0 -0.969904 0 0 -1.05898 0 0 -1.13053 0 0 -1.18346 0 0 -1.21697 0 0 -1.23057 0 0 -1.22409 0 0 -1.19768 0 0 -1.15179 0 0 -1.08721 0 0 -1.005 0 0 -0.906514 0 0 -0.793355 0 0 -0.667363 0 0 -0.530584 0 0 -0.385231 0 0 -0.233656 0 0 -0.0783068 0 0 0.0783068 0 0 0.233656 0 0 0.385231 0 0 0.530584 0 0 0.667363 0 0 0.793355 0 0 0.906514 0 0 1.005 0 0 1.08721 0 0 1.15179 0 0 1.19768 0 0 1.22409 0 0 1.23057 0 0 1.21697 0 0 1.18346 0 0 1.13053 0 0 1.05898 0 0 0.969904 0 0 0.864674 0 0 0.744923 0 0 0.612515 0 0 0.469516 0 0 0.318166 0 0 0.160837 0 0 0 0 0 0 0 0 -0.161564 0 0 -0.320562 0 0 -0.474486 0 0 -0.620914 0 0 -0.757537 0 0 -0.882203 0 0 -0.992949 0 0 -1.08803 0 0 -1.16595 0 0 -1.22548 0 0 -1.26568 0 0 -1.28593 0 0 -1.28589 0 0 -1.26558 0 0 -1.22532 0 0 -1.16574 0 0 -1.08778 0 0 -0.992663 0 0 -0.8819 0 0 -0.757234 0 0 -0.62063 0 0 -0.474242 0 0 -0.320377 0 0 -0.161461 0 0 -6.443e-10 0 0 0.161461 0 0 0.320377 0 0 0.474242 0 0 0.62063 0 0 0.757234 0 0 0.8819 0 0 0.992663 0 0 1.08778 0 0 1.16574 0 0 1.22532 0 0 1.26558 0 0 1.28589 0 0 1.28593 0 0 1.26568 0 0 1.22548 0 0 1.16595 0 0 1.08803 0 0 0.992949 0 0 0.882203 0 0 0.757537 0 0 0.620914 0 0 0.474486 0 0 0.320562 0 0 0.161564 0 0 0 0 0 0 0 0 -0.161815 0 0 -0.322014 0 0 -0.478069 0 0 -0.627516 0 0 -0.767987 0 0 -0.897255 0 0 -1.01326 0 0 -1.11417 0 0 -1.19835 0 0 -1.26445 0 0 -1.3114 0 0 -1.33843 0 0 -1.34507 0 0 -1.33117 0 0 -1.29692 0 0 -1.24281 0 0 -1.16964 0 0 -1.07852 0 0 -0.970828 0 0 -0.84821 0 0 -0.712544 0 0 -0.565911 0 0 -0.410565 0 0 -0.248896 0 0 -0.0833936 0 0 0.0833936 0 0 0.248896 0 0 0.410565 0 0 0.565911 0 0 0.712544 0 0 0.84821 0 0 0.970828 0 0 1.07852 0 0 1.16964 0 0 1.24281 0 0 1.29692 0 0 1.33117 0 0 1.34507 0 0 1.33843 0 0 1.3114 0 0 1.26445 0 0 1.19835 0 0 1.11417 0 0 1.01326 0 0 0.897255 0 0 0.767987 0 0 0.627516 0 0 0.478069 0 0 0.322014 0 0 0.161815 0 0 0 0 0 0 0 0 -0.161585 0 0 -0.322512 0 0 -0.480241 0 0 -0.632275 0 0 -0.776201 0 0 -0.909724 0 0 -1.03071 0 0 -1.13721 0 0 -1.22749 0 0 -1.30009 0 0 -1.3538 0 0 -1.38771 0 0 -1.4012 0 0 -1.39399 0 0 -1.36611 0 0 -1.3179 0 0 -1.25004 0 0 -1.16349 0 0 -1.05952 0 0 -0.939659 0 0 -0.805686 0 0 -0.659601 0 0 -0.503592 0 0 -0.340002 0 0 -0.171291 0 0 -5.987e-10 0 0 0.171291 0 0 0.340002 0 0 0.503592 0 0 0.659601 0 0 0.805686 0 0 0.939659 0 0 1.05952 0 0 1.16349 0 0 1.25004 0 0 1.3179 0 0 1.36611 0 0 1.39399 0 0 1.4012 0 0 1.38771 0 0 1.3538 0 0 1.30009 0 0 1.22749 0 0 1.13721 0 0 1.03071 0 0 0.909724 0 0 0.776201 0 0 0.632275 0 0 0.480241 0 0 0.322512 0 0 0.161585 0 0 0 0 0 0 0 0 -0.160879 0 0 -0.322054 0 0 -0.480986 0 0 -0.635159 0 0 -0.782122 0 0 -0.919525 0 0 -1.04516 0 0 -1.15699 0 0 -1.25319 0 0 -1.33217 0 0 -1.39259 0 0 -1.43342 0 0 -1.4539 0 0 -1.45359 0 0 -1.43238 0 0 -1.39047 0 0 -1.3284 0 0 -1.24698 0 0 -1.14735 0 0 -1.03094 0 0 -0.899398 0 0 -0.754648 0 0 -0.598798 0 0 -0.43413 0 0 -0.263065 0 0 -0.0881216 0 0 0.0881216 0 0 0.263065 0 0 0.43413 0 0 0.598798 0 0 0.754648 0 0 0.899398 0 0 1.03094 0 0 1.14735 0 0 1.24698 0 0 1.3284 0 0 1.39047 0 0 1.43238 0 0 1.45359 0 0 1.4539 0 0 1.43342 0 0 1.39259 0 0 1.33217 0 0 1.25319 0 0 1.15699 0 0 1.04516 0 0 0.919525 0 0 0.782122 0 0 0.635159 0 0 0.480986 0 0 0.322054 0 0 0.160879 0 0 0 0 0 0 0 0 -0.159699 0 0 -0.320642 0 0 -0.480299 0 0 -0.636148 0 0 -0.785709 0 0 -0.92659 0 0 -1.05652 0 0 -1.17338 0 0 -1.27526 0 0 -1.36045 0 0 -1.42751 0 0 -1.47525 0 0 -1.50279 0 0 -1.50956 0 0 -1.49528 0 0 -1.46002 0 0 -1.40416 0 0 -1.32839 0 0 -1.2337 0 0 -1.12139 0 0 -0.993009 0 0 -0.85037 0 0 -0.695496 0 0 -0.530599 0 0 -0.358048 0 0 -0.180326 0 0 -5.43165e-10 0 0 0.180326 0 0 0.358048 0 0 0.530599 0 0 0.695496 0 0 0.85037 0 0 0.