<?xml version="1.0"?>
<VTKFile type="UnstructuredGrid"  version="0.1"  >
<UnstructuredGrid>
<Piece  NumberOfPoints="25032" NumberOfCells="49121">
<Points>
<DataArray  type="Float64"  NumberOfComponents="3"  format="ascii">-5 0 0  40 0 0  40 10 0  0 10 0  0 1 0  -5 1 0  -5 0.75 0  5 0.75 0  5 1.25 0  0 1.25 0  0 1.075 0  1 1.075 0  1 0.925 0  -2 0.925 0  -2 1 0  0 1.5 0  40 1.5 0  -4.924999999999996 0 0  -4.849999999999993 0 0  -4.774999999999989 0 0  -4.699999999999985 0 0  -4.624999999999981 0 0  -4.549999999999978 0 0  -4.474999999999974 0 0  -4.39999999999997 0 0  -4.324999999999966 0 0  -4.249999999999963 0 0  -4.174999999999959 0 0  -4.099999999999955 0 0  -4.024999999999951 0 0  -3.949999999999947 0 0  -3.874999999999943 0 0  -3.79999999999994 0 0  -3.724999999999936 0 0  -3.649999999999932 0 0  -3.574999999999929 0 0  -3.499999999999925 0 0  -3.424999999999921 0 0  -3.349999999999917 0 0  -3.274999999999913 0 0  -3.19999999999993 0 0  -3.124999999999964 0 0  -3.049999999999997 0 0  -2.97500000000003 0 0  -2.900000000000063 0 0  -2.825000000000129 0 0  -2.750000000000199 0 0  -2.675000000000269 0 0  -2.600000000000339 0 0  -2.525000000000407 0 0  -2.450000000000458 0 0  -2.37500000000051 0 0  -2.300000000000562 0 0  -2.225000000000613 0 0  -2.150000000000647 0 0  -2.075000000000662 0 0  -2.000000000000676 0 0  -1.925000000000691 0 0  -1.850000000000705 0 0  -1.775000000000705 0 0  -1.700000000000702 0 0  -1.625000000000698 0 0  -1.550000000000694 0 0  -1.47500000000069 0 0  -1.400000000000686 0 0  -1.325000000000682 0 0  -1.250000000000679 0 0  -1.175000000000675 0 0  -1.100000000000671 0 0  -1.025000000000667 0 0  -0.9500000000006636 0 0  -0.875000000000659 0 0  -0.8000000000006553 0 0  -0.7250000000006516 0 0  -0.6500000000006478 0 0  -0.5750000000006441 0 0  -0.5000000000006395 0 0  -0.4250000000006366 0 0  -0.3500000000006329 0 0  -0.2750000000006292 0 0  -0.2000000000006246 0 0  -0.1250000000006208 0 0  -0.05000000000061799 0 0  0.02499999999938662 0 0  0.09999999999939035 0 0  0.1749999999993941 0 0  0.2499999999993978 0 0  0.3249999999993758 0 0  0.3999999999993431 0 0  0.4749999999993095 0 0  0.5499999999992768 0 0  0.6249999999992433 0 0  0.6999999999991351 0 0  0.7749999999990296 0 0  0.8499999999989214 0 0  0.9249999999988141 0 0  0.9999999999986944 0 0  1.074999999998552 0 0  1.149999999998407 0 0  1.224999999998261 0 0  1.299999999998119 0 0  1.374999999997974 0 0  1.44999999999783 0 0  1.524999999997685 0 0  1.599999999997541 0 0  1.674999999997397 0 0  1.749999999997253 0 0  1.824999999997109 0 0  1.899999999996965 0 0  1.974999999996821 0 0  2.049999999996677 0 0  2.124999999996531 0 0  2.199999999996388 0 0  2.274999999996243 0 0  2.349999999996101 0 0  2.424999999995955 0 0  2.49999999999581 0 0  2.574999999995668 0 0  2.649999999995523 0 0  2.724999999995378 0 0  2.799999999995234 0 0  2.874999999995089 0 0  2.949999999994946 0 0  3.024999999994801 0 0  3.099999999994658 0 0  3.174999999994514 0 0  3.249999999994371 0 0  3.324999999994224 0 0  3.39999999999408 0 0  3.474999999993937 0 0  3.549999999993792 0 0  3.624999999993648 0 0  3.699999999993503 0 0  3.774999999993359 0 0  3.849999999993216 0 0  3.924999999993071 0 0  3.999999999992927 0 0  4.074999999992784 0 0  4.149999999992639 0 0  4.224999999992495 0 0  4.29999999999235 0 0  4.374999999992207 0 0  4.449999999992063 0 0  4.524999999991918 0 0  4.599999999991773 0 0  4.674999999991629 0 0  4.749999999991484 0 0  4.82499999999134 0 0  4.899999999991195 0 0  4.974999999991052 0 0  5.049999999990908 0 0  5.124999999990763 0 0  5.199999999990617 0 0  5.274999999990472 0 0  5.349999999990329 0 0  5.424999999990185 0 0  5.49999999999004 0 0  5.574999999989895 0 0  5.649999999989751 0 0  5.724999999989608 0 0  5.799999999989463 0 0  5.874999999989317 0 0  5.949999999989172 0 0  6.024999999989028 0 0  6.099999999988885 0 0  6.17499999998874 0 0  6.249999999988596 0 0  6.324999999988451 0 0  6.399999999988305 0 0  6.474999999988162 0 0  6.549999999988019 0 0  6.624999999987873 0 0  6.699999999987728 0 0  6.774999999987587 0 0  6.849999999987441 0 0  6.924999999987296 0 0  6.999999999987153 0 0  7.074999999987007 0 0  7.149999999986864 0 0  7.224999999986718 0 0  7.299999999986575 0 0  7.374999999986429 0 0  7.449999999986284 0 0  7.524999999986141 0 0  7.599999999985997 0 0  7.674999999985852 0 0  7.749999999985706 0 0  7.824999999985563 0 0  7.89999999998542 0 0  7.974999999985274 0 0  8.049999999985129 0 0  8.124999999984986 0 0  8.19999999998484 0 0  8.274999999984697 0 0  8.349999999984554 0 0  8.424999999984408 0 0  8.499999999984261 0 0  8.574999999984119 0 0  8.649999999983976 0 0  8.724999999983829 0 0  8.799999999983685 0 0  8.874999999983542 0 0  8.949999999983397 0 0  9.024999999983253 0 0  9.099999999983106 0 0  9.174999999982964 0 0  9.249999999982817 0 0  9.324999999982674 0 0  9.399999999982532 0 0  9.474999999982385 0 0  9.549999999982241 0 0  9.624999999982094 0 0  9.699999999981955 0 0  9.774999999981809 0 0  9.849999999981662 0 0  9.924999999981519 0 0  9.999999999981375 0 0  10.07499999998123 0 0  10.14999999998109 0 0  10.22499999998094 0 0  10.2999999999808 0 0  10.37499999998065 0 0  10.44999999998051 0 0  10.52499999998036 0 0  10.59999999998022 0 0  10.67499999998007 0 0  10.74999999997993 0 0  10.82499999997979 0 0  10.89999999997964 0 0  10.9749999999795 0 0  11.04999999997935 0 0  11.12499999997921 0 0  11.19999999997906 0 0  11.27499999997892 0 0  11.34999999997877 0 0  11.42499999997863 0 0  11.49999999997848 0 0  11.57499999997834 0 0  11.6499999999782 0 0  11.72499999997805 0 0  11.79999999997791 0 0  11.87499999997776 0 0  11.94999999997762 0 0  12.02499999997748 0 0  12.09999999997733 0 0  12.17499999997719 0 0  12.24999999997704 0 0  12.3249999999769 0 0  12.39999999997675 0 0  12.47499999997661 0 0  12.54999999997646 0 0  12.62499999997632 0 0  12.69999999997617 0 0  12.77499999997603 0 0  12.84999999997589 0 0  12.92499999997574 0 0  12.9999999999756 0 0  13.07499999997545 0 0  13.14999999997531 0 0  13.22499999997516 0 0  13.29999999997502 0 0  13.37499999997488 0 0  13.44999999997473 0 0  13.52499999997459 0 0  13.59999999997444 0 0  13.6749999999743 0 0  13.74999999997415 0 0  13.82499999997401 0 0  13.89999999997386 0 0  13.97499999997372 0 0  14.04999999997358 0 0  14.12499999997343 0 0  14.19999999997329 0 0  14.27499999997314 0 0  14.349999999973 0 0  14.42499999997285 0 0  14.49999999997271 0 0  14.57499999997257 0 0  14.64999999997242 0 0  14.72499999997228 0 0  14.79999999997213 0 0  14.87499999997199 0 0  14.94999999997185 0 0  15.0249999999717 0 0  15.09999999997156 0 0  15.17499999997142 0 0  15.24999999997127 0 0  15.32499999997113 0 0  15.39999999997098 0 0  15.47499999997084 0 0  15.54999999997069 0 0  15.62499999997055 0 0  15.69999999997041 0 0  15.77499999997026 0 0  15.84999999997012 0 0  15.92499999996997 0 0  15.99999999996983 0 0  16.07499999996969 0 0  16.14999999996954 0 0  16.2249999999694 0 0  16.29999999996926 0 0  16.37499999996911 0 0  16.44999999996897 0 0  16.52499999996882 0 0  16.59999999996868 0 0  16.67499999996853 0 0  16.74999999996839 0 0  16.82499999996825 0 0  16.8999999999681 0 0  16.97499999996796 0 0  17.04999999996781 0 0  17.12499999996767 0 0  17.19999999996763 0 0  17.27499999996763 0 0  17.34999999996764 0 0  17.42499999996764 0 0  17.49999999996764 0 0  17.57499999996794 0 0  17.64999999996824 0 0  17.72499999996854 0 0  17.79999999996884 0 0  17.87499999996919 0 0  17.94999999996964 0 0  18.02499999997008 0 0  18.09999999997053 0 0  18.17499999997098 0 0  18.24999999997143 0 0  18.32499999997188 0 0  18.39999999997232 0 0  18.47499999997277 0 0  18.54999999997322 0 0  18.62499999997367 0 0  18.69999999997412 0 0  18.77499999997456 0 0  18.84999999997501 0 0  18.92499999997546 0 0  18.99999999997591 0 0  19.07499999997636 0 0  19.14999999997681 0 0  19.22499999997725 0 0  19.2999999999777 0 0  19.37499999997815 0 0  19.4499999999786 0 0  19.52499999997904 0 0  19.5999999999795 0 0  19.67499999997995 0 0  19.74999999998039 0 0  19.82499999998084 0 0  19.89999999998129 0 0  19.97499999998174 0 0  20.04999999998218 0 0  20.12499999998263 0 0  20.19999999998308 0 0  20.27499999998353 0 0  20.34999999998398 0 0  20.42499999998443 0 0  20.49999999998487 0 0  20.57499999998532 0 0  20.64999999998576 0 0  20.72499999998622 0 0  20.79999999998667 0 0  20.87499999998711 0 0  20.94999999998756 0 0  21.024999999988 0 0  21.09999999998846 0 0  21.17499999998891 0 0  21.24999999998935 0 0  21.3249999999898 0 0  21.39999999999025 0 0  21.4749999999907 0 0  21.54999999999115 0 0  21.62499999999159 0 0  21.69999999999204 0 0  21.77499999999249 0 0  21.84999999999294 0 0  21.92499999999339 0 0  21.99999999999383 0 0  22.07499999999428 0 0  22.14999999999473 0 0  22.22499999999518 0 0  22.29999999999563 0 0  22.37499999999607 0 0  22.44999999999652 0 0  22.52499999999697 0 0  22.59999999999742 0 0  22.67499999999787 0 0  22.74999999999831 0 0  22.82499999999876 0 0  22.89999999999922 0 0  22.97499999999966 0 0  23.05000000000011 0 0  23.12500000000055 0 0  23.200000000001 0 0  23.27500000000145 0 0  23.3500000000019 0 0  23.42500000000235 0 0  23.5000000000028 0 0  23.57500000000324 0 0  23.65000000000369 0 0  23.72500000000414 0 0  23.80000000000459 0 0  23.87500000000503 0 0  23.95000000000548 0 0  24.02500000000594 0 0  24.10000000000638 0 0  24.17500000000683 0 0  24.25000000000728 0 0  24.32500000000773 0 0  24.40000000000817 0 0  24.47500000000862 0 0  24.55000000000907 0 0  24.62500000000952 0 0  24.70000000000997 0 0  24.77500000001042 0 0  24.85000000001086 0 0  24.92500000001131 0 0  25.00000000001176 0 0  25.07500000001221 0 0  25.15000000001266 0 0  25.2250000000131 0 0  25.30000000001355 0 0  25.37500000001399 0 0  25.45000000001445 0 0  25.5250000000149 0 0  25.60000000001534 0 0  25.67500000001579 0 0  25.75000000001624 0 0  25.82500000001669 0 0  25.90000000001714 0 0  25.97500000001758 0 0  26.05000000001803 0 0  26.12500000001848 0 0  26.2000000000189
[...]
<PointData  Vectors="f_277-0"> 
<DataArray  type="Float64"  Name="f_277-0"  NumberOfComponents="3" format="ascii">1.8518016343834881e-01 0.0000000000000000e+00 0.0000000000000000e+00  3.7029602101440478e-09 0.0000000000000000e+00 0.0000000000000000e+00  -1.7180610249689736e-13 -1.2195569549006568e-13 5.2638323232091514e-18  0.0000000000000000e+00 0.0000000000000000e+00 0.0000000000000000e+00  0.0000000000000000e+00 0.0000000000000000e+00 0.0000000000000000e+00  -1.1080588541245435e-04 0.0000000000000000e+00 2.9472977764855766e-06  4.3049499478850124e-03 0.0000000000000000e+00 1.0862616629145400e-01  -8.5245877839258534e-05 2.8950860308930160e-05 -4.1161268074344142e-06  -4.3147343481807130e-07 3.9675364461392655e-07 7.0958082589441416e-10  0.0000000000000000e+00 0.0000000000000000e+00 0.0000000000000000e+00  0.0000000000000000e+00 0.0000000000000000e+00 0.0000000000000000e+00  2.9857348924094646e-06 -8.0305211956925447e-07 -4.5115065046539638e-08  6.2555821572847016e-06 -3.1951276277672167e-06 -7.1877208801075941e-07  -1.0447098784732051e-05 1.2026725681921409e-05 8.7724760710421623e-07  0.0000000000000000e+00 0.0000000000000000e+00 0.0000000000000000e+00  0.0000000000000000e+00 0.0000000000000000e+00 0.0000000000000000e+00  -6.6810621306899677e-12 -1.6133542659133291e-13 -1.2422362631875975e-17  -9.5504015717736337e-03 0.0000000000000000e+00 0.0000000000000000e+00  -7.5679946965181554e-03 0.0000000000000000e+00 0.0000000000000000e+00  -1.1193840619917008e-04 0.0000000000000000e+00 0.0000000000000000e+00  1.0236985463136856e-02 0.0000000000000000e+00 0.0000000000000000e+00  2.1452698407275601e-02 0.0000000000000000e+00 0.0000000000000000e+00  2.6973849712109726e-02 0.0000000000000000e+00 0.0000000000000000e+00  2.5094389787759165e-02 0.0000000000000000e+00 0.0000000000000000e+00  1.6494447884510641e-02 0.0000000000000000e+00 0.0000000000000000e+00  -1.3240829226353044e-03 0.0000000000000000e+00 0.0000000000000000e+00  -2.0935667117673296e-02 0.0000000000000000e+00 0.0000000000000000e+00  -3.7401491646813993e-02 0.0000000000000000e+00 0.0000000000000000e+00  -4.2716526064741925e-02 0.0000000000000000e+00 0.0000000000000000e+00  -3.4170062727750188e-02 0.0000000000000000e+00 0.0000000000000000e+00  -1.1553670108939165e-02 0.0000000000000000e+00 0.0000000000000000e+00  1.6757667667293207e-02 0.0000000000000000e+00 0.0000000000000000e+00  4.3163069080318063e-02 0.0000000000000000e+00 0.0000000000000000e+00  5.6871747759532590e-02 0.0000000000000000e+00 0.0000000000000000e+00  5.2655868531198399e-02 0.0000000000000000e+00 0.0000000000000000e+00  2.9903504514175505e-02 0.0000000000000000e+00 0.0000000000000000e+00  -4.1135102946251671e-03 0.0000000000000000e+00 0.0000000000000000e+00  -3.9349893181194862e-02 0.0000000000000000e+00 0.0000000000000000e+00  -6.3711718250138036e-02 0.0000000000000000e+00 0.0000000000000000e+00  -6.8166141043642256e-02 0.0000000000000000e+00 0.0000000000000000e+00  -5.1022369334129368e-02 0.0000000000000000e+00 0.0000000000000000e+00  -1.5317757213725162e-02 0.0000000000000000e+00 0.0000000000000000e+00  2.6443961229053820e-02 0.0000000000000000e+00 0.0000000000000000e+00  6.1469504052235592e-02 0.0000000000000000e+00 0.0000000000000000e+00  7.8250816206176368e-02 0.0000000000000000e+00 0.0000000000000000e+00  7.0372434893043762e-02 0.0000000000000000e+00 0.0000000000000000e+00  3.9247281595791737e-02 0.0000000000000000e+00 0.0000000000000000e+00  -5.0576400703692004e-03 0.0000000000000000e+00 0.0000000000000000e+00  -4.9099877959727541e-02 0.0000000000000000e+00 0.0000000000000000e+00  -7.8908181919158576e-02 0.0000000000000000e+00 0.0000000000000000e+00  -8.4258318675196883e-02 0.0000000000000000e+00 0.0000000000000000e+00  -6.3624678768768442e-02 0.0000000000000000e+00 0.0000000000000000e+00  -2.2583394350767609e-02 0.0000000000000000e+00 0.0000000000000000e+00  2.6646553863015253e-02 0.0000000000000000e+00 0.0000000000000000e+00  6.7951815722768399e-02 0.0000000000000000e+00 0.0000000000000000e+00  8.9384409009432397e-02 0.0000000000000000e+00 0.0000000000000000e+00  8.3473465763567220e-02 0.0000000000000000e+00 0.0000000000000000e+00  5.1285480798490123e-02 0.0000000000000000e+00 0.0000000000000000e+00  2.9880019770471469e-03 0.0000000000000000e+00 0.0000000000000000e+00  -4.6015119320436060e-02 0.0000000000000000e+00 0.0000000000000000e+00  -8.1886004086293443e-02 0.0000000000000000e+00 0.0000000000000000e+00  -9.3394219234114326e-02 0.0000000000000000e+00 0.0000000000000000e+00  -7.6119419819280637e-02 0.0000000000000000e+00 0.0000000000000000e+00  -3.5847630893212565e-02 0.0000000000000000e+00 0.0000000000000000e+00  1.4940695564051379e-02 0.0000000000000000e+00 0.0000000000000000e+00  6.1919457796043409e-02 0.0000000000000000e+00 0.0000000000000000e+00  8.9620475435452540e-02 0.0000000000000000e+00 0.0000000000000000e+00  9.1226800829232457e-02 0.0000000000000000e+00 0.0000000000000000e+00  6.5536075903870894e-02 0.0000000000000000e+00 0.0000000000000000e+00  2.0189769908490938e-02 0.0000000000000000e+00 0.0000000000000000e+00  -3.0947088931449807e-02 0.0000000000000000e+00 0.0000000000000000e+00  -7.2334989578899153e-02 0.0000000000000000e+00 0.0000000000000000e+00  -9.2905918884586908e-02 0.0000000000000000e+00 0.0000000000000000e+00  -8.5751026912671863e-02 0.0000000000000000e+00 0.0000000000000000e+00  -5.3380098436780675e-02 0.0000000000000000e+00 0.0000000000000000e+00  -5.7554769526574519e-03 0.0000000000000000e+00 0.0000000000000000e+00  4.3152038735306944e-02 0.0000000000000000e+00 0.0000000000000000e+00  7.9215394530009794e-02 0.0000000000000000e+00 0.0000000000000000e+00  9.1683749853869262e-02 0.0000000000000000e+00 0.0000000000000000e+00  7.7884254269235745e-02 0.0000000000000000e+00 0.0000000000000000e+00  4.1504456330781987e-02 0.0000000000000000e+00 0.0000000000000000e+00  -6.4604047640985981e-03 0.0000000000000000e+00 0.0000000000000000e+00  -5.1590607642130304e-02 0.0000000000000000e+00 0.0000000000000000e+00  -8.1883637818868871e-02 0.0000000000000000e+00 0.0000000000000000e+00  -8.7929497915938987e-02 0.0000000000000000e+00 0.0000000000000000e+00  -6.8361401933952418e-02 0.0000000000000000e+00 0.0000000000000000e+00  -2.9401103829955585e-02 0.0000000000000000e+00 0.0000000000000000e+00  1.6827649572648654e-02 0.0000000000000000e+00 0.0000000000000000e+00  5.7903324713404834e-02 0.0000000000000000e+00 0.0000000000000000e+00  8.1780125134638476e-02 0.0000000000000000e+00 0.0000000000000000e+00  8.1344148921747100e-02 0.0000000000000000e+00 0.0000000000000000e+00  5.7621902424546637e-02 0.0000000000000000e+00 0.0000000000000000e+00  1.8101356301625113e-02 0.0000000000000000e+00 0.0000000000000000e+00  -2.6163854216175543e-02 0.0000000000000000e+00 0.0000000000000000e+00  -6.1340492475558894e-02 0.0000000000000000e+00 0.0000000000000000e+00  -7.8738160815962743e-02 0.0000000000000000e+00 0.0000000000000000e+00  -7.2901803098455273e-02 0.0000000000000000e+00 0.0000000000000000e+00  -4.6313066718455850e-02 0.0000000000000000e+00 0.0000000000000000e+00  -6.9652271339952906e-03 0.0000000000000000e+00 0.0000000000000000e+00  3.3165921908338891e-02 0.0000000000000000e+00 0.0000000000000000e+00  6.3400526363268969e-02 0.0000000000000000e+00 0.0000000000000000e+00  7.4175463665417926e-02 0.0000000000000000e+00 0.0000000000000000e+00  6.3525492830207766e-02 0.0000000000000000e+00 0.0000000000000000e+00  3.5008439609584045e-02 0.0000000000000000e+00 0.0000000000000000e+00  -3.0025117457941728e-03 0.0000000000000000e+00 0.0000000000000000e+00  -3.9074450475077058e-02 0.0000000000000000e+00 0.0000000000000000e+00  -6.2837126272865237e-02 0.0000000000000000e+00 0.0000000000000000e+00  -6.8226776476790874e-02 0.0000000000000000e+00 0.0000000000000000e+00  -5.3511753223068170e-02 0.0000000000000000e+00 0.0000000000000000e+00  -2.4063980766061355e-02 0.0000000000000000e+00 0.0000000000000000e+00  1.1314088224965059e-02 0.0000000000000000e+00 0.0000000000000000e+00  4.2819121965124406e-02 0.0000000000000000e+00 0.0000000000000000e+00  6.0966284671194672e-02 0.0000000000000000e+00 0.0000000000000000e+00  6.0752716494483230e-02 0.0000000000000000e+00 0.0000000000000000e+00  4.3299177758609829e-02 0.0000000000000000e+00 0.0000000000000000e+00  1.4115501598229368e-02 0.0000000000000000e+00 0.0000000000000000e+00  -1.8474781767225952e-02 0.0000000000000000e+00 0.0000000000000000e+00  -4.4792605746960340e-02 0.0000000000000000e+00 0.0000000000000000e+00  -5.7188624315962153e-02 0.0000000000000000e+00 0.0000000000000000e+00  -5.2739528357235152e-02 0.0000000000000000e+00 0.0000000000000000e+00  -3.3464440082728607e-02 0.0000000000000000e+00 0.0000000000000000e+00  -5.0653618248437549e-03 0.0000000000000000e+00 0.0000000000000000e+00  2.3470088096263050e-02 0.0000000000000000e+00 0.0000000000000000e+00  4.4589470948445710e-02 0.0000000000000000e+00 0.0000000000000000e+00  5.1942375738576685e-02 0.0000000000000000e+00 0.0000000000000000e+00  4.4270715935360951e-02 0.0000000000000000e+00 0.0000000000000000e+00  2.4076704930624044e-02 0.0000000000000000e+00 0.0000000000000000e+00  -2.2395830439678127e-03 0.0000000000000000e+00 0.0000000000000000e+00  -2.7241289928357282e-02 0.0000000000000000e+00 0.0000000000000000e+00  -4.3092648083311813e-02 0.0000000000000000e+00 0.0000000000000000e+00  -4.6149897389511169e-02 0.0000000000000000e+00 0.0000000000000000e+00  -3.5909101493551601e-02 0.0000000000000000e+00 0.0000000000000000e+00  -1.5567723715285283e-02 0.0000000000000000e+00 0.0000000000000000e+00  8.4494943534113680e-03 0.0000000000000000e+00 0.0000000000000000e+00  2.8936329418846669e-02 0.0000000000000000e+00 0.0000000000000000e+00  4.0549441781874397e-02 0.0000000000000000e+00 0.0000000000000000e+00  3.9680317345090657e-02 0.0000000000000000e+00 0.0000000000000000e+00  2.7687511569186540e-02 0.0000000000000000e+00 0.0000000000000000e+00  8.2154120011287985e-03 0.0000000000000000e+00 0.0000000000000000e+00  -1.2996318850657466e-02 0.0000000000000000e+00 0.0000000000000000e+00  -2.9544145268667384e-02 0.0000000000000000e+00 0.0000000000000000e+00  -3.6698710354141253e-02 0.0000000000000000e+00 0.0000000000000000e+00  -3.3175209736307110e-02 0.0000000000000000e+00 0.0000000000000000e+00  -2.0273177343820292e-02 0.0000000000000000e+00 0.0000000000000000e+00  -1.9573220740641789e-03 0.0000000000000000e+00 0.0000000000000000e+00  1.6103824776109089e-02 0.0000000000000000e+00 0.0000000000000000e+00  2.8686244010788394e-02 0.0000000000000000e+00 0.0000000000000000e+00  3.2566575940561442e-02 0.0000000000000000e+00 0.0000000000000000e+00  2.6773221243989526e-02 0.0000000000000000e+00 0.0000000000000000e+00  1.3630516273175110e-02 0.0000000000000000e+00 0.0000000000000000e+00  -2.7112517477083805e-03 0.0000000000000000e+00 0.0000000000000000e+00  -1.7800288871880270e-02 0.0000000000000000e+00 0.0000000000000000e+00  -2.6899825091133311e-02 0.0000000000000000e+00 0.0000000000000000e+00  -2.7710811655415262e-02 0.0000000000000000e+00 0.0000000000000000e+00  -2.0692594676891041e-02 0.0000000000000000e+00 0.0000000000000000e+00  -7.9845761899014506e-03 0.0000000000000000e+00 0.0000000000000000e+00  6.2909563343872110e-03 0.0000000000000000e+00 0.0000000000000000e+00  1.8395804066617793e-02 0.0000000000000000e+00 0.0000000000000000e+00  2.4384800524492538e-02 0.0000000000000000e+00 0.0000000000000000e+00  2.3012452408731746e-02 0.0000000000000000e+00 0.0000000000000000e+00  1.5148681699831397e-02 0.0000000000000000e+00 0.0000000000000000e+00  3.3003679665302996e-03 0.0000000000000000e+00 0.0000000000000000e+00  -8.9883018715180632e-03 0.0000000000000000e+00 0.0000000000000000e+00  -1.7825816543969013e-02 0.0000000000000000e+00 0.0000000000000000e+00  -2.1223352900292074e-02 0.0000000000000000e+00 0.0000000000000000e+00  -1.8389199020439374e-02 0.0000000000000000e+00 0.0000000000000000e+00  -1.0381553544873282e-02 0.0000000000000000e+00 0.0000000000000000e+00  2.9802624145999648e-04 0.0000000000000000e+00 0.0000000000000000e+00  1.0194560437954674e-02 0.0000000000000000e+00 0.0000000000000000e+00  1.6571428157028487e-02 0.0000000000000000e+00 0.0000000000000000e+00  1.7956596536730166e-02 0.0000000000000000e+00 0.0000000000000000e+00  1.3978340586687905e-02 0.0000000000000000e+00 0.0000000000000000e+00  6.1974535893814364e-03 0.0000000000000000e+00 0.0000000000000000e+00  -2.9037599026435004e-03 0.0000000000000000e+00 0.0000000000000000e+00  -1.0593776811255411e-02 0.0000000000000000e+00 0.0000000000000000e+00  -1.4950961446864386e-02 0.0000000000000000e+00 0.0000000000000000e+00  -1.4635798562088138e-02 0.0000000000000000e+00 0.0000000000000000e+00  -1.0137466352187329e-02 0.0000000000000000e+00 0.0000000000000000e+00  -3.0572794273684340e-03 0.0000000000000000e+00 0.0000000000000000e+00  4.5426352718975988e-03 0.0000000000000000e+00 0.0000000000000000e+00  1.0352682222269505e-02 0.0000000000000000e+00 0.0000000000000000e+00  1.2856368070455851e-02 0.0000000000000000e+00 0.0000000000000000e+00  1.1540266785407070e-02 0.0000000000000000e+00 0.0000000000000000e+00  6.9030303151507251e-03 0.0000000000000000e+00 0.0000000000000000e+00  5.5557042032898746e-04 0.0000000000000000e+00 0.0000000000000000e+00  -5.5358160131172502e-03 0.0000000000000000e+00 0.0000000000000000e+00  -9.5877251166580114e-03 0.0000000000000000e+00 0.0000000000000000e+00  -1.0718055631440456e-02 0.0000000000000000e+00 0.0000000000000000e+00  -8.6198913609258788e-03 0.0000000000000000e+00 0.0000000000000000e+00  -4.1722471392907842e-03 0.0000000000000000e+00 0.0000000000000000e+00  1.1257273364468409e-03 0.0000000000000000e+00 0.0000000000000000e+00  5.8762253588585545e-03 0.0000000000000000e+00 0.0000000000000000e+00  8.4975989613231759e-03 0.0000000000000000e+00 0.0000000000000000e+00  8.5798861107624774e-03 0.0000000000000000e+00 0.0000000000000000e+00  6.1410390616167517e-03 0.0000000000000000e+00 0.0000000000000000e+00  2.1241404996216145e-03 0.0000000000000000e+00 0.0000000000000000e+00  -2.2106492173887232e-03 0.0000000000000000e+00 0.0000000000000000e+00  -5.6381178229171353e-03 0.0000000000000000e+00 0.0000000000000000e+00  -7.2384349174685007e-03 0.0000000000000000e+00 0.0000000000000000e+00  -6.5889023074598464e-03 0.0000000000000000e+00 0.0000000000000000e+00  -4.0962511347357898e-03 0.0000000000000000e+00 0.0000000000000000e+00  -6.3999941187124266e-04 0.0000000000000000e+00 0.0000000000000000e+00  2.7510316323177226e-03 0.0000000000000000e+00 0.0000000000000000e+00  5.1339145431787588e-03 0.0000000000000000e+00 0.0000000000000000e+00  5.8774306320769692e-03 0.0000000000000000e+00 0.0000000000000000e+00  4.8169374257101489e-03 0.0000000000000000e+00 0.0000000000000000e+00  2.4917986459005079e-03 0.0000000000000000e+00 0.0000000000000000e+00  -3.6665526497207804e-04 0.0000000000000000e+00 0.0000000000000000e+00  -2.8832917156386226e-03 0.0000000000000000e+00 0.0000000000000000e+00  -4.4443893224769557e-03 0.0000000000000000e+00 0.0000000000000000e+00  -4.5720721119930190e-03 0.0000000000000000e+00 0.0000000000000000e+00  -3.3591666121240613e-03 0.0000000000000000e+00 0.0000000000000000e+00  -1.3105776007931239e-03 0.0000000000000000e+00 0.0000000000000000e+00  9.6570093304468665e-04 0.0000000000000000e+00 0.0000000000000000e+00  2.7409911925766477e-03 0.0000000000000000e+00 0.0000000000000000e+00  3.6087005386956704e-03 0.0000000000000000e+00 0.0000000000000000e+00  3.3903340748157118e-03 0.0000000000000000e+00 0.0000000000000000e+00  2.1933997080985528e-03 0.0000000000000000e+00 0.0000000000000000e+00  4.9649208173409981e-04 0.0000000000000000e+00 0.0000000000000000e+00  -1.2093554472824297e-03 0.0000000000000000e+00 0.0000000000000000e+00  -2.4043483532257453e-03 0.0000000000000000e+00 0.0000000000000000e+00  -2.7910573511543326e-03 0.0000000000000000e+00 0.0000000000000000e+00  -2.3786058870451389e-03 0.0000000000000000e+00 0.0000000000000000e+00  -1.3213855173083403e-03 0.0000000000000000e+00 0.0000000000000000e+00  6.8979229055773462e-06 0.0000000000000000e+00 0.0000000000000000e+00  1.2075872268616544e-03 0.0000000000000000e+00 0.0000000000000000e+00  1.9543945075440345e-03 0.0000000000000000e+00 0.0000000000000000e+00  2.0633332091468427e-03 0.0000000000000000e+00 0.0000000000000000e+00  1.5972939629014470e-03 0.0000000000000000e+00 0.0000000000000000e+00  7.3283195664643761e-04 0.0000000000000000e+00 0.0000000000000000e+00  -2.6867556559428024e-04 0.0000000000000000e+00 0.0000000000000000e+00  -1.0571232053827257e-03 0.0000000000000000e+00 0.0000000000000000e+00  -1.4855903726239839e-03 0.0000000000000000e+00 0.0000000000000000e+00  -1.4532341707519706e-03 0.0000000000000000e+00 0.0000000000000000e+00  -1.0230746405600517e-03 0.0000000000000000e+00 0.0000000000000000e+00  -3.6487939254069854e-04 0.0000000000000000e+00 0.0000000000000000e+00  3.2282297523391680e-04 0.0000000000000000e+00 0.0000000000000000e+00  8.3744759323846807e-04 0.0000000000000000e+00 0.0000000000000000e+00  1.0579141582867364e-03 0.0000000000000000e+00 0.0000000000000000e+00  9.7838764601169818e-04 0.0000000000000000e+00 0.0000000000000000e+00  6.4455850261827159e-04 0.0000000000000000e+00 0.0000000000000000e+00  1.7611662241745672e-04 0.0000000000000000e+00 0.0000000000000000e+00  -2.6560851507530421e-04 0.0000000000000000e+00 0.0000000000000000e+00  -5.8402660939159358e-04 0.0000000000000000e+00 0.0000000000000000e+00  -7.0968270410630473e-04 0.0000000000000000e+00 0.0000000000000000e+00  -6.3868315675523783e-04 0.0000000000000000e+00 0.0000000000000000e+00  -4.2133782509946464e-04 0.0000000000000000e+00 0.0000000000000000e+00  -1.2497986534144902e-04 0.0000000000000000e+00 0.0000000000000000e+00  1.5298594183169660e-04 0.0000000000000000e+00 0.0000000000000000e+00  3.5498558225305403e-04 0.0000000000000000e+00 0.0000000000000000e+00  4.5167617880426076e-04 0.0000000000000000e+00 0.0000000000000000e+00  4.2937195626027486e-04 0.0000000000000000e+00 0.0000000000000000e+00  3.1851712764608661e-04 0.0000000000000000e+00 0.0000000000000000e+00  1.5178362914664508e-04 0.0000000000000000e+00 0.0000000000000000e+00  -2.3097024455527541e-05 0.0000000000000000e+00 0.0000000000000000e+00  -1.7799500527899335e-04 0.0000000000000000e+00 0.0000000000000000e+00  -2.8431353640506735e-04 0.0000000000000000e+00 0.0000000000000000e+00  -3.2939511499174531e-04 0.0000000000000000e+00 0.0000000000000000e+00  -3.0038397248386800e-04 0.0000000000000000e+00 0.0000000000000000e+00  -2.1829303229198814e-04 0.0000000000000000e+00 0.0000000000000000e+00  -8.7591710659456855e-05 0.0000000000000000e+00 0.0000000000000000e+00  6.4299931053459958e-05 0.0000000000000000e+00 0.0000000000000000e+00  2.0161743270162311e-04 0.0000000000000000e+00 0.0000000000000000e+00  3.0564513452910406e-04 0.0000000000000000e+00 0.0000000000000000e+00  3.3080794359072597e-04 0.0000000000000000e+00 0.0000000000000000e+00  2.8509403459869777e-04 0.0000000000000000e+00 0.0000000000000000e+00  1.6037504796412503e-04 0.0000000000000000e+00 0.0000000000000000e+00  -1.2897688847151870e-05 0.0000000000000000e+00 0.0000000000000000e+00  -1.9362733885325528e-04 0.0000000000000000e+00 0.0000000000000000e+00  -3.2724939541514886e-04 0.0000000000000000e+00 0.0000000000000000e+00  -3.8343066616183721e-04 0.0000000000000000e+00 0.0000000000000000e+00  -3.3234626597152217e-04 0.0000000000000000e+00 0.0000000000000000e+00  -1.8366041127816139e-04 0.0000000000000000e+00 0.0000000000000000e+00  1.5379195830398609e-05 0.0000000000000000e+00 0.0000000000000000e+00  2.2664983728287242e-04 0.0000000000000000e+00 0.0000000000000000e+00  3.7366505739801280e-04 0.0000000000000000e+00 0.0000000000000000e+00  4.2335729194959305e-04 0.0000000000000000e+00 0.0000000000000000e+00  3.4590681849832884e-04 0.0000000000000000e+00 0.0000000000000000e+00  1.6578101481427976e-04 0.0000000000000000e+00 0.0000000000000000e+00  -6.9297616363303574e-05 0.0000000000000000e+00 0.0000000000000000e+00  -2.8600120197069074e-04 0.0000000000000000e+00 0.0000000000000000e+00  -4.2702528420577961e-04 0.0000000000000000e+00 0.0000000000000000e+0