<?xml version="1.0"?>
<VTKFile type="UnstructuredGrid"  version="0.1"  >
<UnstructuredGrid>
<Piece  NumberOfPoints="25032" NumberOfCells="49121">
<Points>
<DataArray  type="Float64"  NumberOfComponents="3"  format="ascii">-5 0 0  40 0 0  40 10 0  0 10 0  0 1 0  -5 1 0  -5 0.75 0  5 0.75 0  5 1.25 0  0 1.25 0  0 1.075 0  1 1.075 0  1 0.925 0  -2 0.925 0  -2 1 0  0 1.5 0  40 1.5 0  -4.924999999999996 0 0  -4.849999999999993 0 0  -4.774999999999989 0 0  -4.699999999999985 0 0  -4.624999999999981 0 0  -4.549999999999978 0 0  -4.474999999999974 0 0  -4.39999999999997 0 0  -4.324999999999966 0 0  -4.249999999999963 0 0  -4.174999999999959 0 0  -4.099999999999955 0 0  -4.024999999999951 0 0  -3.949999999999947 0 0  -3.874999999999943 0 0  -3.79999999999994 0 0  -3.724999999999936 0 0  -3.649999999999932 0 0  -3.574999999999929 0 0  -3.499999999999925 0 0  -3.424999999999921 0 0  -3.349999999999917 0 0  -3.274999999999913 0 0  -3.19999999999993 0 0  -3.124999999999964 0 0  -3.049999999999997 0 0  -2.97500000000003 0 0  -2.900000000000063 0 0  -2.825000000000129 0 0  -2.750000000000199 0 0  -2.675000000000269 0 0  -2.600000000000339 0 0  -2.525000000000407 0 0  -2.450000000000458 0 0  -2.37500000000051 0 0  -2.300000000000562 0 0  -2.225000000000613 0 0  -2.150000000000647 0 0  -2.075000000000662 0 0  -2.000000000000676 0 0  -1.925000000000691 0 0  -1.850000000000705 0 0  -1.775000000000705 0 0  -1.700000000000702 0 0  -1.625000000000698 0 0  -1.550000000000694 0 0  -1.47500000000069 0 0  -1.400000000000686 0 0  -1.325000000000682 0 0  -1.250000000000679 0 0  -1.175000000000675 0 0  -1.100000000000671 0 0  -1.025000000000667 0 0  -0.9500000000006636 0 0  -0.875000000000659 0 0  -0.8000000000006553 0 0  -0.7250000000006516 0 0  -0.6500000000006478 0 0  -0.5750000000006441 0 0  -0.5000000000006395 0 0  -0.4250000000006366 0 0  -0.3500000000006329 0 0  -0.2750000000006292 0 0  -0.2000000000006246 0 0  -0.1250000000006208 0 0  -0.05000000000061799 0 0  0.02499999999938662 0 0  0.09999999999939035 0 0  0.1749999999993941 0 0  0.2499999999993978 0 0  0.3249999999993758 0 0  0.3999999999993431 0 0  0.4749999999993095 0 0  0.5499999999992768 0 0  0.6249999999992433 0 0  0.6999999999991351 0 0  0.7749999999990296 0 0  0.8499999999989214 0 0  0.9249999999988141 0 0  0.9999999999986944 0 0  1.074999999998552 0 0  1.149999999998407 0 0  1.224999999998261 0 0  1.299999999998119 0 0  1.374999999997974 0 0  1.44999999999783 0 0  1.524999999997685 0 0  1.599999999997541 0 0  1.674999999997397 0 0  1.749999999997253 0 0  1.824999999997109 0 0  1.899999999996965 0 0  1.974999999996821 0 0  2.049999999996677 0 0  2.124999999996531 0 0  2.199999999996388 0 0  2.274999999996243 0 0  2.349999999996101 0 0  2.424999999995955 0 0  2.49999999999581 0 0  2.574999999995668 0 0  2.649999999995523 0 0  2.724999999995378 0 0  2.799999999995234 0 0  2.874999999995089 0 0  2.949999999994946 0 0  3.024999999994801 0 0  3.099999999994658 0 0  3.174999999994514 0 0  3.249999999994371 0 0  3.324999999994224 0 0  3.39999999999408 0 0  3.474999999993937 0 0  3.549999999993792 0 0  3.624999999993648 0 0  3.699999999993503 0 0  3.774999999993359 0 0  3.849999999993216 0 0  3.924999999993071 0 0  3.999999999992927 0 0  4.074999999992784 0 0  4.149999999992639 0 0  4.224999999992495 0 0  4.29999999999235 0 0  4.374999999992207 0 0  4.449999999992063 0 0  4.524999999991918 0 0  4.599999999991773 0 0  4.674999999991629 0 0  4.749999999991484 0 0  4.82499999999134 0 0  4.899999999991195 0 0  4.974999999991052 0 0  5.049999999990908 0 0  5.124999999990763 0 0  5.199999999990617 0 0  5.274999999990472 0 0  5.349999999990329 0 0  5.424999999990185 0 0  5.49999999999004 0 0  5.574999999989895 0 0  5.649999999989751 0 0  5.724999999989608 0 0  5.799999999989463 0 0  5.874999999989317 0 0  5.949999999989172 0 0  6.024999999989028 0 0  6.099999999988885 0 0  6.17499999998874 0 0  6.249999999988596 0 0  6.324999999988451 0 0  6.399999999988305 0 0  6.474999999988162 0 0  6.549999999988019 0 0  6.624999999987873 0 0  6.699999999987728 0 0  6.774999999987587 0 0  6.849999999987441 0 0  6.924999999987296 0 0  6.999999999987153 0 0  7.074999999987007 0 0  7.149999999986864 0 0  7.224999999986718 0 0  7.299999999986575 0 0  7.374999999986429 0 0  7.449999999986284 0 0  7.524999999986141 0 0  7.599999999985997 0 0  7.674999999985852 0 0  7.749999999985706 0 0  7.824999999985563 0 0  7.89999999998542 0 0  7.974999999985274 0 0  8.049999999985129 0 0  8.124999999984986 0 0  8.19999999998484 0 0  8.274999999984697 0 0  8.349999999984554 0 0  8.424999999984408 0 0  8.499999999984261 0 0  8.574999999984119 0 0  8.649999999983976 0 0  8.724999999983829 0 0  8.799999999983685 0 0  8.874999999983542 0 0  8.949999999983397 0 0  9.024999999983253 0 0  9.099999999983106 0 0  9.174999999982964 0 0  9.249999999982817 0 0  9.324999999982674 0 0  9.399999999982532 0 0  9.474999999982385 0 0  9.549999999982241 0 0  9.624999999982094 0 0  9.699999999981955 0 0  9.774999999981809 0 0  9.849999999981662 0 0  9.924999999981519 0 0  9.999999999981375 0 0  10.07499999998123 0 0  10.14999999998109 0 0  10.22499999998094 0 0  10.2999999999808 0 0  10.37499999998065 0 0  10.44999999998051 0 0  10.52499999998036 0 0  10.59999999998022 0 0  10.67499999998007 0 0  10.74999999997993 0 0  10.82499999997979 0 0  10.89999999997964 0 0  10.9749999999795 0 0  11.04999999997935 0 0  11.12499999997921 0 0  11.19999999997906 0 0  11.27499999997892 0 0  11.34999999997877 0 0  11.42499999997863 0 0  11.49999999997848 0 0  11.57499999997834 0 0  11.6499999999782 0 0  11.72499999997805 0 0  11.79999999997791 0 0  11.87499999997776 0 0  11.94999999997762 0 0  12.02499999997748 0 0  12.09999999997733 0 0  12.17499999997719 0 0  12.24999999997704 0 0  12.3249999999769 0 0  12.39999999997675 0 0  12.47499999997661 0 0  12.54999999997646 0 0  12.62499999997632 0 0  12.69999999997617 0 0  12.77499999997603 0 0  12.84999999997589 0 0  12.92499999997574 0 0  12.9999999999756 0 0  13.07499999997545 0 0  13.14999999997531 0 0  13.22499999997516 0 0  13.29999999997502 0 0  13.37499999997488 0 0  13.44999999997473 0 0  13.52499999997459 0 0  13.59999999997444 0 0  13.6749999999743 0 0  13.74999999997415 0 0  13.82499999997401 0 0  13.89999999997386 0 0  13.97499999997372 0 0  14.04999999997358 0 0  14.12499999997343 0 0  14.19999999997329 0 0  14.27499999997314 0 0  14.349999999973 0 0  14.42499999997285 0 0  14.49999999997271 0 0  14.57499999997257 0 0  14.64999999997242 0 0  14.72499999997228 0 0  14.79999999997213 0 0  14.87499999997199 0 0  14.94999999997185 0 0  15.0249999999717 0 0  15.09999999997156 0 0  15.17499999997142 0 0  15.24999999997127 0 0  15.32499999997113 0 0  15.39999999997098 0 0  15.47499999997084 0 0  15.54999999997069 0 0  15.62499999997055 0 0  15.69999999997041 0 0  15.77499999997026 0 0  15.84999999997012 0 0  15.92499999996997 0 0  15.99999999996983 0 0  16.07499999996969 0 0  16.14999999996954 0 0  16.2249999999694 0 0  16.29999999996926 0 0  16.37499999996911 0 0  16.44999999996897 0 0  16.52499999996882 0 0  16.59999999996868 0 0  16.67499999996853 0 0  16.74999999996839 0 0  16.82499999996825 0 0  16.8999999999681 0 0  16.97499999996796 0 0  17.04999999996781 0 0  17.12499999996767 0 0  17.19999999996763 0 0  17.27499999996763 0 0  17.34999999996764 0 0  17.42499999996764 0 0  17.49999999996764 0 0  17.57499999996794 0 0  17.64999999996824 0 0  17.72499999996854 0 0  17.79999999996884 0 0  17.87499999996919 0 0  17.94999999996964 0 0  18.02499999997008 0 0  18.09999999997053 0 0  18.17499999997098 0 0  18.24999999997143 0 0  18.32499999997188 0 0  18.39999999997232 0 0  18.47499999997277 0 0  18.54999999997322 0 0  18.62499999997367 0 0  18.69999999997412 0 0  18.77499999997456 0 0  18.84999999997501 0 0  18.92499999997546 0 0  18.99999999997591 0 0  19.07499999997636 0 0  19.14999999997681 0 0  19.22499999997725 0 0  19.2999999999777 0 0  19.37499999997815 0 0  19.4499999999786 0 0  19.52499999997904 0 0  19.5999999999795 0 0  19.67499999997995 0 0  19.74999999998039 0 0  19.82499999998084 0 0  19.89999999998129 0 0  19.97499999998174 0 0  20.04999999998218 0 0  20.12499999998263 0 0  20.19999999998308 0 0  20.27499999998353 0 0  20.34999999998398 0 0  20.42499999998443 0 0  20.49999999998487 0 0  20.57499999998532 0 0  20.64999999998576 0 0  20.72499999998622 0 0  20.79999999998667 0 0  20.87499999998711 0 0  20.94999999998756 0 0  21.024999999988 0 0  21.09999999998846 0 0  21.17499999998891 0 0  21.24999999998935 0 0  21.3249999999898 0 0  21.39999999999025 0 0  21.4749999999907 0 0  21.54999999999115 0 0  21.62499999999159 0 0  21.69999999999204 0 0  21.77499999999249 0 0  21.84999999999294 0 0  21.92499999999339 0 0  21.99999999999383 0 0  22.07499999999428 0 0  22.14999999999473 0 0  22.22499999999518 0 0  22.29999999999563 0 0  22.37499999999607 0 0  22.44999999999652 0 0  22.52499999999697 0 0  22.59999999999742 0 0  22.67499999999787 0 0  22.74999999999831 0 0  22.82499999999876 0 0  22.89999999999922 0 0  22.97499999999966 0 0  23.05000000000011 0 0  23.12500000000055 0 0  23.200000000001 0 0  23.27500000000145 0 0  23.3500000000019 0 0  23.42500000000235 0 0  23.5000000000028 0 0  23.57500000000324 0 0  23.65000000000369 0 0  23.72500000000414 0 0  23.80000000000459 0 0  23.87500000000503 0 0  23.95000000000548 0 0  24.02500000000594 0 0  24.10000000000638 0 0  24.17500000000683 0 0  24.25000000000728 0 0  24.32500000000773 0 0  24.40000000000817 0 0  24.47500000000862 0 0  24.55000000000907 0 0  24.62500000000952 0 0  24.70000000000997 0 0  24.77500000001042 0 0  24.85000000001086 0 0  24.92500000001131 0 0  25.00000000001176 0 0  25.07500000001221 0 0  25.15000000001266 0 0  25.2250000000131 0 0  25.30000000001355 0 0  25.37500000001399 0 0  25.45000000001445 0 0  25.5250000000149 0 0  25.60000000001534 0 0  25.67500000001579 0 0  25.75000000001624 0 0  25.82500000001669 0 0  25.90000000001714 0 0  25.97500000001758 0 0  26.05000000001803 0 0  26.12500000001848 0 0  26.2000000000189
[...]
<PointData  Vectors="f_277-0"> 
<DataArray  type="Float64"  Name="f_277-0"  NumberOfComponents="3" format="ascii">3.4418414778412636e+00 0.0000000000000000e+00 0.0000000000000000e+00  -1.3979056799121536e-05 0.0000000000000000e+00 0.0000000000000000e+00  5.7288555075944838e-11 4.0767875863815660e-11 -7.7492101419270563e-18  0.0000000000000000e+00 0.0000000000000000e+00 0.0000000000000000e+00  0.0000000000000000e+00 0.0000000000000000e+00 0.0000000000000000e+00  -3.4802540534113967e-03 0.0000000000000000e+00 -1.6935385301795785e-04  -3.4807522355651835e-02 0.0000000000000000e+00 -1.9859847734847011e-01  -8.5255411351768465e-02 -5.2531786731774735e-02 -1.8089613220444681e-02  -2.0672936371452432e-03 -1.6452753215613794e-03 4.8545287379678141e-06  0.0000000000000000e+00 0.0000000000000000e+00 0.0000000000000000e+00  0.0000000000000000e+00 0.0000000000000000e+00 0.0000000000000000e+00  -4.9692833944636038e-03 3.4158255008779462e-02 9.3329606848227624e-06  -1.0307865056344966e-02 1.0292210919264710e-01 -1.5903349234889201e-04  5.2314390169716285e-02 -6.6870963715013790e-02 -2.5359480818718172e-03  0.0000000000000000e+00 0.0000000000000000e+00 0.0000000000000000e+00  0.0000000000000000e+00 0.0000000000000000e+00 0.0000000000000000e+00  4.3782528038078953e-09 6.9748056127437106e-11 -1.9009802866258141e-13  4.5267398612717278e+00 0.0000000000000000e+00 0.0000000000000000e+00  4.8163025523017495e+00 0.0000000000000000e+00 0.0000000000000000e+00  2.8356213333701454e+00 0.0000000000000000e+00 0.0000000000000000e+00  -2.2438038335348875e-01 0.0000000000000000e+00 0.0000000000000000e+00  -4.2035125272780034e+00 0.0000000000000000e+00 0.0000000000000000e+00  -7.1159070612208364e+00 0.0000000000000000e+00 0.0000000000000000e+00  -7.5898249856667253e+00 0.0000000000000000e+00 0.0000000000000000e+00  -5.5834056120120508e+00 0.0000000000000000e+00 0.0000000000000000e+00  -9.8756878355802247e-01 0.0000000000000000e+00 0.0000000000000000e+00  4.2795568927146617e+00 0.0000000000000000e+00 0.0000000000000000e+00  8.8319405694897277e+00 0.0000000000000000e+00 0.0000000000000000e+00  1.0546919531111849e+01 0.0000000000000000e+00 0.0000000000000000e+00  8.7890034532583172e+00 0.0000000000000000e+00 0.0000000000000000e+00  3.8143859776048998e+00 0.0000000000000000e+00 0.0000000000000000e+00  -2.7275809378006928e+00 0.0000000000000000e+00 0.0000000000000000e+00  -8.7543282065804764e+00 0.0000000000000000e+00 0.0000000000000000e+00  -1.2358060004629266e+01 0.0000000000000000e+00 0.0000000000000000e+00  -1.1821106141034202e+01 0.0000000000000000e+00 0.0000000000000000e+00  -7.3950280079561956e+00 0.0000000000000000e+00 0.0000000000000000e+00  -2.7456631280267674e-01 0.0000000000000000e+00 0.0000000000000000e+00  7.2835462496448917e+00 0.0000000000000000e+00 0.0000000000000000e+00  1.2705248087236093e+01 0.0000000000000000e+00 0.0000000000000000e+00  1.4194143209125262e+01 0.0000000000000000e+00 0.0000000000000000e+00  1.1151673938753461e+01 0.0000000000000000e+00 0.0000000000000000e+00  4.2949899844317567e+00 0.0000000000000000e+00 0.0000000000000000e+00  -4.1022843483891940e+00 0.0000000000000000e+00 0.0000000000000000e+00  -1.1442471539524023e+01 0.0000000000000000e+00 0.0000000000000000e+00  -1.5306224205068721e+01 0.0000000000000000e+00 0.0000000000000000e+00  -1.4381843181664351e+01 0.0000000000000000e+00 0.0000000000000000e+00  -8.8520719388765450e+00 0.0000000000000000e+00 0.0000000000000000e+00  -4.8202088026635570e-01 0.0000000000000000e+00 0.0000000000000000e+00  8.3505935811776979e+00 0.0000000000000000e+00 0.0000000000000000e+00  1.4622350314415749e+01 0.0000000000000000e+00 0.0000000000000000e+00  1.6511306822958112e+01 0.0000000000000000e+00 0.0000000000000000e+00  1.3251218626189807e+01 0.0000000000000000e+00 0.0000000000000000e+00  5.7898845164382973e+00 0.0000000000000000e+00 0.0000000000000000e+00  -3.5640478189202773e+00 0.0000000000000000e+00 0.0000000000000000e+00  -1.1835240082955760e+01 0.0000000000000000e+00 0.0000000000000000e+00  -1.6579697414731374e+01 0.0000000000000000e+00 0.0000000000000000e+00  -1.6368567171245395e+01 0.0000000000000000e+00 0.0000000000000000e+00  -1.1056892280518944e+01 0.0000000000000000e+00 0.0000000000000000e+00  -2.3163348519261531e+00 0.0000000000000000e+00 0.0000000000000000e+00  7.0783754378833175e+00 0.0000000000000000e+00 0.0000000000000000e+00  1.4404667567059766e+01 0.0000000000000000e+00 0.0000000000000000e+00  1.7488999254246291e+01 0.0000000000000000e+00 0.0000000000000000e+00  1.5231943516625876e+01 0.0000000000000000e+00 0.0000000000000000e+00  8.4507747131313735e+00 0.0000000000000000e+00 0.0000000000000000e+00  -8.5575051869625307e-01 0.0000000000000000e+00 0.0000000000000000e+00  -9.9402170280092541e+00 0.0000000000000000e+00 0.0000000000000000e+00  -1.6030827062000323e+01 0.0000000000000000e+00 0.0000000000000000e+00  -1.7367244792101832e+01 0.0000000000000000e+00 0.0000000000000000e+00  -1.3617547940304654e+01 0.0000000000000000e+00 0.0000000000000000e+00  -5.7892169283827641e+00 0.0000000000000000e+00 0.0000000000000000e+00  3.6731420322779993e+00 0.0000000000000000e+00 0.0000000000000000e+00  1.2020025424113458e+01 0.0000000000000000e+00 0.0000000000000000e+00  1.6815426881422599e+01 0.0000000000000000e+00 0.0000000000000000e+00  1.6670073284674583e+01 0.0000000000000000e+00 0.0000000000000000e+00  1.1649287686095375e+01 0.0000000000000000e+00 0.0000000000000000e+00  3.4052659734102528e+00 0.0000000000000000e+00 0.0000000000000000e+00  -5.9081451401109977e+00 0.0000000000000000e+00 0.0000000000000000e+00  -1.3366420793180872e+01 0.0000000000000000e+00 0.0000000000000000e+00  -1.6963633313756631e+01 0.0000000000000000e+00 0.0000000000000000e+00  -1.5650228687861446e+01 0.0000000000000000e+00 0.0000000000000000e+00  -9.7822830797636904e+00 0.0000000000000000e+00 0.0000000000000000e+00  -1.1736551911657094e+00 0.0000000000000000e+00 0.0000000000000000e+00  7.5568539333625795e+00 0.0000000000000000e+00 0.0000000000000000e+00  1.4111330565590317e+01 0.0000000000000000e+00 0.0000000000000000e+00  1.6577525728035379e+01 0.0000000000000000e+00 0.0000000000000000e+00  1.4209679468667620e+01 0.0000000000000000e+00 0.0000000000000000e+00  7.7616573938504274e+00 0.0000000000000000e+00 0.0000000000000000e+00  -6.8689678349144634e-01 0.0000000000000000e+00 0.0000000000000000e+00  -8.8689052471231538e+00 0.0000000000000000e+00 0.0000000000000000e+00  -1.4400838588762559e+01 0.0000000000000000e+00 0.0000000000000000e+00  -1.5703241384045842e+01 0.0000000000000000e+00 0.0000000000000000e+00  -1.2557170375556193e+01 0.0000000000000000e+00 0.0000000000000000e+00  -5.8843437102199481e+00 0.0000000000000000e+00 0.0000000000000000e+00  2.3570042848524455e+00 0.0000000000000000e+00 0.0000000000000000e+00  9.7986134200910797e+00 0.0000000000000000e+00 0.0000000000000000e+00  1.4286354011891802e+01 0.0000000000000000e+00 0.0000000000000000e+00  1.4615748350149763e+01 0.0000000000000000e+00 0.0000000000000000e+00  1.0728522163621804e+01 0.0000000000000000e+00 0.0000000000000000e+00  3.9507299506904667e+00 0.0000000000000000e+00 0.0000000000000000e+00  -3.9108090606287815e+00 0.0000000000000000e+00 0.0000000000000000e+00  -1.0475206954488876e+01 0.0000000000000000e+00 0.0000000000000000e+00  -1.3857859731767402e+01 0.0000000000000000e+00 0.0000000000000000e+00  -1.3204267556874806e+01 0.0000000000000000e+00 0.0000000000000000e+00  -8.9047321286425358e+00 0.0000000000000000e+00 0.0000000000000000e+00  -2.0275319808232859e+00 0.0000000000000000e+00 0.0000000000000000e+00  5.1847002019583011e+00 0.0000000000000000e+00 0.0000000000000000e+00  1.0797320404108634e+01 0.0000000000000000e+00 0.0000000000000000e+00  1.3201033559647923e+01 0.0000000000000000e+00 0.0000000000000000e+00  1.1723095173444227e+01 0.0000000000000000e+00 0.0000000000000000e+00  6.9304867624761455e+00 0.0000000000000000e+00 0.0000000000000000e+00  3.7650213287863687e-01 0.0000000000000000e+00 0.0000000000000000e+00  -6.2035894959821736e+00 0.0000000000000000e+00 0.0000000000000000e+00  -1.0834404360757368e+01 0.0000000000000000e+00 0.0000000000000000e+00  -1.2227401772159121e+01 0.0000000000000000e+00 0.0000000000000000e+00  -1.0045906296764915e+01 0.0000000000000000e+00 0.0000000000000000e+00  -5.1218856601404532e+00 0.0000000000000000e+00 0.0000000000000000e+00  1.1715275829030070e+00 0.0000000000000000e+00 0.0000000000000000e+00  6.9014688847835268e+00 0.0000000000000000e+00 0.0000000000000000e+00  1.0535115651956156e+01 0.0000000000000000e+00 0.0000000000000000e+00  1.1055886449355494e+01 0.0000000000000000e+00 0.0000000000000000e+00  8.4259748385504025e+00 0.0000000000000000e+00 0.0000000000000000e+00  3.4630714181636257e+00 0.0000000000000000e+00 0.0000000000000000e+00  -2.3889489339492331e+00 0.0000000000000000e+00 0.0000000000000000e+00  -7.3519248318347481e+00 0.0000000000000000e+00 0.0000000000000000e+00  -1.0022762672989314e+01 0.0000000000000000e+00 0.0000000000000000e+00  -9.7598923398193911e+00 0.0000000000000000e+00 0.0000000000000000e+00  -6.7640311916930855e+00 0.0000000000000000e+00 0.0000000000000000e+00  -1.8631080315758215e+00 0.0000000000000000e+00 0.0000000000000000e+00  3.4207565137892253e+00 0.0000000000000000e+00 0.0000000000000000e+00  7.4838759606612184e+00 0.0000000000000000e+00 0.0000000000000000e+00  9.2843982177529831e+00 0.0000000000000000e+00 0.0000000000000000e+00  8.4213977374663358e+00 0.0000000000000000e+00 0.0000000000000000e+00  5.1104130019809624e+00 0.0000000000000000e+00 0.0000000000000000e+00  4.9873940908973680e-01 0.0000000000000000e+00 0.0000000000000000e+00  -4.1065266559862614e+00 0.0000000000000000e+00 0.0000000000000000e+00  -7.3957951649515490e+00 0.0000000000000000e+00 0.0000000000000000e+00  -8.4219381516928742e+00 0.0000000000000000e+00 0.0000000000000000e+00  -6.9916925612132781e+00 0.0000000000000000e+00 0.0000000000000000e+00  -3.6653108445726081e+00 0.0000000000000000e+00 0.0000000000000000e+00  6.4497031712046859e-01 0.0000000000000000e+00 0.0000000000000000e+00  4.5757161546195295e+00 0.0000000000000000e+00 0.0000000000000000e+00  7.0775113684451743e+00 0.0000000000000000e+00 0.0000000000000000e+00  7.4175187865196870e+00 0.0000000000000000e+00 0.0000000000000000e+00  5.6394486863689925e+00 0.0000000000000000e+00 0.0000000000000000e+00  2.2930665976878473e+00 0.0000000000000000e+00 0.0000000000000000e+00  -1.5451661851735208e+00 0.0000000000000000e+00 0.0000000000000000e+00  -4.8016433556832903e+00 0.0000000000000000e+00 0.0000000000000000e+00  -6.5941370630390814e+00 0.0000000000000000e+00 0.0000000000000000e+00  -6.3928723191911212e+00 0.0000000000000000e+00 0.0000000000000000e+00  -4.3518296322636161e+00 0.0000000000000000e+00 0.0000000000000000e+00  -1.1907352161036227e+00 0.0000000000000000e+00 0.0000000000000000e+00  2.2146730945283983e+00 0.0000000000000000e+00 0.0000000000000000e+00  4.8275463964697503e+00 0.0000000000000000e+00 0.0000000000000000e+00  5.9652407664551896e+00 0.0000000000000000e+00 0.0000000000000000e+00  5.2980527564158191e+00 0.0000000000000000e+00 0.0000000000000000e+00  3.1589616119065287e+00 0.0000000000000000e+00 0.0000000000000000e+00  2.2173145047552634e-01 0.0000000000000000e+00 0.0000000000000000e+00  -2.6457870730073187e+00 0.0000000000000000e+00 0.0000000000000000e+00  -4.6468224220464966e+00 0.0000000000000000e+00 0.0000000000000000e+00  -5.2044892873906701e+00 0.0000000000000000e+00 0.0000000000000000e+00  -4.3036112180677781e+00 0.0000000000000000e+00 0.0000000000000000e+00  -2.1228928743589166e+00 0.0000000000000000e+00 0.0000000000000000e+00  5.1228641090368932e-01 0.0000000000000000e+00 0.0000000000000000e+00  2.8878595765254182e+00 0.0000000000000000e+00 0.0000000000000000e+00  4.3061420675462099e+00 0.0000000000000000e+00 0.0000000000000000e+00  4.4777167790738615e+00 0.0000000000000000e+00 0.0000000000000000e+00  3.3408272144101203e+00 0.0000000000000000e+00 0.0000000000000000e+00  1.2462056478143748e+00 0.0000000000000000e+00 0.0000000000000000e+00  -1.0690263978158605e+00 0.0000000000000000e+00 0.0000000000000000e+00  -2.9563924308111327e+00 0.0000000000000000e+00 0.0000000000000000e+00  -3.9108431017642324e+00 0.0000000000000000e+00 0.0000000000000000e+00  -3.7012735664356797e+00 0.0000000000000000e+00 0.0000000000000000e+00  -2.4055802626085372e+00 0.0000000000000000e+00 0.0000000000000000e+00  -5.0479571655113387e-01 0.0000000000000000e+00 0.0000000000000000e+00  1.4342749031673614e+00 0.0000000000000000e+00 0.0000000000000000e+00  2.8615439596165939e+00 0.0000000000000000e+00 0.0000000000000000e+00  3.4211380790999000e+00 0.0000000000000000e+00 0.0000000000000000e+00  2.9132093134859969e+00 0.0000000000000000e+00 0.0000000000000000e+00  1.6315135352660841e+00 0.0000000000000000e+00 0.0000000000000000e+00  -3.8841788667653053e-02 0.0000000000000000e+00 0.0000000000000000e+00  -1.6294885609888092e+00 0.0000000000000000e+00 0.0000000000000000e+00  -2.6597801237648016e+00 0.0000000000000000e+00 0.0000000000000000e+00  -2.8671548343973043e+00 0.0000000000000000e+00 0.0000000000000000e+00  -2.2333750624943685e+00 0.0000000000000000e+00 0.0000000000000000e+00  -1.0145643836737561e+00 0.0000000000000000e+00 0.0000000000000000e+00  4.5011698260715194e-01 0.0000000000000000e+00 0.0000000000000000e+00  1.7035533318465421e+00 0.0000000000000000e+00 0.0000000000000000e+00  2.3751141012667594e+00 0.0000000000000000e+00 0.0000000000000000e+00  2.3531254016086303e+00 0.0000000000000000e+00 0.0000000000000000e+00  1.6160052648577585e+00 0.0000000000000000e+00 0.0000000000000000e+00  4.9261199250339871e-01 0.0000000000000000e+00 0.0000000000000000e+00  -7.2567751559550775e-01 0.0000000000000000e+00 0.0000000000000000e+00  -1.6409409984795291e+00 0.0000000000000000e+00 0.0000000000000000e+00  -2.0522378966649510e+00 0.0000000000000000e+00 0.0000000000000000e+00  -1.8368313887133654e+00 0.0000000000000000e+00 0.0000000000000000e+00  -1.0973725181801743e+00 0.0000000000000000e+00 0.0000000000000000e+00  -1.1030027861545436e-01 0.0000000000000000e+00 0.0000000000000000e+00  8.6715443122008351e-01 0.0000000000000000e+00 0.0000000000000000e+00  1.5148850462350998e+00 0.0000000000000000e+00 0.0000000000000000e+00  1.7010975145605529e+00 0.0000000000000000e+00 0.0000000000000000e+00  1.3742757063150841e+00 0.0000000000000000e+00 0.0000000000000000e+00  6.7720763360257230e-01 0.0000000000000000e+00 0.0000000000000000e+00  -1.6345654373692078e-01 0.0000000000000000e+00 0.0000000000000000e+00  -8.9818444406680764e-01 0.0000000000000000e+00 0.0000000000000000e+00  -1.3315092080341693e+00 0.0000000000000000e+00 0.0000000000000000e+00  -1.3448567275160199e+00 0.0000000000000000e+00 0.0000000000000000e+00  -9.8127934456871402e-01 0.0000000000000000e+00 0.0000000000000000e+00  -3.4990352782274686e-01 0.0000000000000000e+00 0.0000000000000000e+00  3.2736867904516131e-01 0.0000000000000000e+00 0.0000000000000000e+00  8.6352510089724810e-01 0.0000000000000000e+00 0.0000000000000000e+00  1.1145571400237380e+00 0.0000000000000000e+00 0.0000000000000000e+00  1.0233296384272894e+00 0.0000000000000000e+00 0.0000000000000000e+00  6.5588501757172901e-01 0.0000000000000000e+00 0.0000000000000000e+00  1.1230754440379254e-01 0.0000000000000000e+00 0.0000000000000000e+00  -4.1043176463471881e-01 0.0000000000000000e+00 0.0000000000000000e+00  -7.7204790579518923e-01 0.0000000000000000e+00 0.0000000000000000e+00  -8.9616653578282890e-01 0.0000000000000000e+00 0.0000000000000000e+00  -7.5055664150093082e-01 0.0000000000000000e+00 0.0000000000000000e+00  -4.0337140601007260e-01 0.0000000000000000e+00 0.0000000000000000e+00  3.3957061322101800e-02 0.0000000000000000e+00 0.0000000000000000e+00  4.2091831197948359e-01 0.0000000000000000e+00 0.0000000000000000e+00  6.5610380385928557e-01 0.0000000000000000e+00 0.0000000000000000e+00  6.8147464043026640e-01 0.0000000000000000e+00 0.0000000000000000e+00  5.1752582443212158e-01 0.0000000000000000e+00 0.0000000000000000e+00  2.1842652390469758e-01 0.0000000000000000e+00 0.0000000000000000e+00  -1.1813042699588244e-01 0.0000000000000000e+00 0.0000000000000000e+00  -3.8622367049557926e-01 0.0000000000000000e+00 0.0000000000000000e+00  -5.2451808825318957e-01 0.0000000000000000e+00 0.0000000000000000e+00  -4.9687981474252185e-01 0.0000000000000000e+00 0.0000000000000000e+00  -3.3844999639111867e-01 0.0000000000000000e+00 0.0000000000000000e+00  -9.6119610146875770e-02 0.0000000000000000e+00 0.0000000000000000e+00  1.4623927013608745e-01 0.0000000000000000e+00 0.0000000000000000e+00  3.2716826029178747e-01 0.0000000000000000e+00 0.0000000000000000e+00  3.9374525146977185e-01 0.0000000000000000e+00 0.0000000000000000e+00  3.4507240161029229e-01 0.0000000000000000e+00 0.0000000000000000e+00  2.0613496887798657e-01 0.0000000000000000e+00 0.0000000000000000e+00  3.0243250364189178e-02 0.0000000000000000e+00 0.0000000000000000e+00  -1.3997192538444156e-01 0.0000000000000000e+00 0.0000000000000000e+00  -2.5177627370561695e-01 0.0000000000000000e+00 0.0000000000000000e+00  -2.7990236683558278e-01 0.0000000000000000e+00 0.0000000000000000e+00  -2.3145209545824941e-01 0.0000000000000000e+00 0.0000000000000000e+00  -1.2492996430778898e-01 0.0000000000000000e+00 0.0000000000000000e+00  -2.7520281303399993e-04 0.0000000000000000e+00 0.0000000000000000e+00  1.1205034001589251e-01 0.0000000000000000e+00 0.0000000000000000e+00  1.7660759752937313e-01 0.0000000000000000e+00 0.0000000000000000e+00  1.8825578180166033e-01 0.0000000000000000e+00 0.0000000000000000e+00  1.4934558046965885e-01 0.0000000000000000e+00 0.0000000000000000e+00  8.0801855975460191e-02 0.0000000000000000e+00 0.0000000000000000e+00  -8.0300997539426572e-04 0.0000000000000000e+00 0.0000000000000000e+00  -7.0717648865707014e-02 0.0000000000000000e+00 0.0000000000000000e+00  -1.1259782940977747e-01 0.0000000000000000e+00 0.0000000000000000e+00  -1.2265076005893988e-01 0.0000000000000000e+00 0.0000000000000000e+00  -1.0266925771205085e-01 0.0000000000000000e+00 0.0000000000000000e+00  -6.3504570060959858e-02 0.0000000000000000e+00 0.0000000000000000e+00  -1.3761754940918913e-02 0.0000000000000000e+00 0.0000000000000000e+00  2.9851062870708527e-02 0.0000000000000000e+00 0.0000000000000000e+00  6.3818889960544647e-02 0.0000000000000000e+00 0.0000000000000000e+00  8.0390694318316511e-02 0.0000000000000000e+00 0.0000000000000000e+00  8.1189466706038493e-02 0.0000000000000000e+00 0.0000000000000000e+00  6.5594580160918861e-02 0.0000000000000000e+00 0.0000000000000000e+00  3.7173191105959021e-02 0.0000000000000000e+00 0.0000000000000000e+00  2.2293934919466116e-03 0.0000000000000000e+00 0.0000000000000000e+00  -3.2783360848221130e-02 0.0000000000000000e+00 0.0000000000000000e+00  -6.1958357545180802e-02 0.0000000000000000e+00 0.0000000000000000e+00  -7.8646454854001208e-02 0.0000000000000000e+00 0.0000000000000000e+00  -7.7027733034805090e-02 0.0000000000000000e+00 0.0000000000000000e+00  -5.8579167532834479e-02 0.0000000000000000e+00 0.0000000000000000e+00  -2.2999792293678111e-02 0.0000000000000000e+00 0.0000000000000000e+00  1.9434202020052568e-02 0.0000000000000000e+00 0.0000000000000000e+00  5.9841720920817271e-02 0.0000000000000000e+00 0.0000000000000000e+00  8.7769455395389037e-02 0.0000000000000000e+00 0.0000000000000000e+00  9.2314662559494998e-02 0.0000000000000000e+00 0.0000000000000000e+00  7.1947519714065683e-02 0.0000000000000000e+00 0.0000000000000000e+00  3.1989663568429999e-02 0.0000000000000000e+00 0.0000000000000000e+00  -2.1550533494849037e-02 0.0000000000000000e+00 0.0000000000000000e+00  -7.0312670204550454e-02 0.0000000000000000e+00 0.0000000000000000e+00  -1.0085639654658449e-01 0.0000000000000000e+00 0.0000000000000000e+00  -1.0385245525898174e-01 0.0000000000000000e+00 0.0000000000000000e+00  -7.5940459021734061e-02 0.0000000000000000e+00 0.0000000000000000e+00  -2.5184043628168326e-02 0.0000000000000000e+00 0.0000000000000000e+00  3.3716828381864142e-02 0.0000000000000000e+00 0.0000000000000000e+00  8.6505731807316383e-02 0.0000000000000000e+00 0.0000000000000000