<?xml version="1.0"?>
<VTKFile type="UnstructuredGrid"  version="0.1"  >
<UnstructuredGrid>
<Piece  NumberOfPoints="25032" NumberOfCells="49121">
<Points>
<DataArray  type="Float64"  NumberOfComponents="3"  format="ascii">-5 0 0  40 0 0  40 10 0  0 10 0  0 1 0  -5 1 0  -5 0.75 0  5 0.75 0  5 1.25 0  0 1.25 0  0 1.075 0  1 1.075 0  1 0.925 0  -2 0.925 0  -2 1 0  0 1.5 0  40 1.5 0  -4.924999999999996 0 0  -4.849999999999993 0 0  -4.774999999999989 0 0  -4.699999999999985 0 0  -4.624999999999981 0 0  -4.549999999999978 0 0  -4.474999999999974 0 0  -4.39999999999997 0 0  -4.324999999999966 0 0  -4.249999999999963 0 0  -4.174999999999959 0 0  -4.099999999999955 0 0  -4.024999999999951 0 0  -3.949999999999947 0 0  -3.874999999999943 0 0  -3.79999999999994 0 0  -3.724999999999936 0 0  -3.649999999999932 0 0  -3.574999999999929 0 0  -3.499999999999925 0 0  -3.424999999999921 0 0  -3.349999999999917 0 0  -3.274999999999913 0 0  -3.19999999999993 0 0  -3.124999999999964 0 0  -3.049999999999997 0 0  -2.97500000000003 0 0  -2.900000000000063 0 0  -2.825000000000129 0 0  -2.750000000000199 0 0  -2.675000000000269 0 0  -2.600000000000339 0 0  -2.525000000000407 0 0  -2.450000000000458 0 0  -2.37500000000051 0 0  -2.300000000000562 0 0  -2.225000000000613 0 0  -2.150000000000647 0 0  -2.075000000000662 0 0  -2.000000000000676 0 0  -1.925000000000691 0 0  -1.850000000000705 0 0  -1.775000000000705 0 0  -1.700000000000702 0 0  -1.625000000000698 0 0  -1.550000000000694 0 0  -1.47500000000069 0 0  -1.400000000000686 0 0  -1.325000000000682 0 0  -1.250000000000679 0 0  -1.175000000000675 0 0  -1.100000000000671 0 0  -1.025000000000667 0 0  -0.9500000000006636 0 0  -0.875000000000659 0 0  -0.8000000000006553 0 0  -0.7250000000006516 0 0  -0.6500000000006478 0 0  -0.5750000000006441 0 0  -0.5000000000006395 0 0  -0.4250000000006366 0 0  -0.3500000000006329 0 0  -0.2750000000006292 0 0  -0.2000000000006246 0 0  -0.1250000000006208 0 0  -0.05000000000061799 0 0  0.02499999999938662 0 0  0.09999999999939035 0 0  0.1749999999993941 0 0  0.2499999999993978 0 0  0.3249999999993758 0 0  0.3999999999993431 0 0  0.4749999999993095 0 0  0.5499999999992768 0 0  0.6249999999992433 0 0  0.6999999999991351 0 0  0.7749999999990296 0 0  0.8499999999989214 0 0  0.9249999999988141 0 0  0.9999999999986944 0 0  1.074999999998552 0 0  1.149999999998407 0 0  1.224999999998261 0 0  1.299999999998119 0 0  1.374999999997974 0 0  1.44999999999783 0 0  1.524999999997685 0 0  1.599999999997541 0 0  1.674999999997397 0 0  1.749999999997253 0 0  1.824999999997109 0 0  1.899999999996965 0 0  1.974999999996821 0 0  2.049999999996677 0 0  2.124999999996531 0 0  2.199999999996388 0 0  2.274999999996243 0 0  2.349999999996101 0 0  2.424999999995955 0 0  2.49999999999581 0 0  2.574999999995668 0 0  2.649999999995523 0 0  2.724999999995378 0 0  2.799999999995234 0 0  2.874999999995089 0 0  2.949999999994946 0 0  3.024999999994801 0 0  3.099999999994658 0 0  3.174999999994514 0 0  3.249999999994371 0 0  3.324999999994224 0 0  3.39999999999408 0 0  3.474999999993937 0 0  3.549999999993792 0 0  3.624999999993648 0 0  3.699999999993503 0 0  3.774999999993359 0 0  3.849999999993216 0 0  3.924999999993071 0 0  3.999999999992927 0 0  4.074999999992784 0 0  4.149999999992639 0 0  4.224999999992495 0 0  4.29999999999235 0 0  4.374999999992207 0 0  4.449999999992063 0 0  4.524999999991918 0 0  4.599999999991773 0 0  4.674999999991629 0 0  4.749999999991484 0 0  4.82499999999134 0 0  4.899999999991195 0 0  4.974999999991052 0 0  5.049999999990908 0 0  5.124999999990763 0 0  5.199999999990617 0 0  5.274999999990472 0 0  5.349999999990329 0 0  5.424999999990185 0 0  5.49999999999004 0 0  5.574999999989895 0 0  5.649999999989751 0 0  5.724999999989608 0 0  5.799999999989463 0 0  5.874999999989317 0 0  5.949999999989172 0 0  6.024999999989028 0 0  6.099999999988885 0 0  6.17499999998874 0 0  6.249999999988596 0 0  6.324999999988451 0 0  6.399999999988305 0 0  6.474999999988162 0 0  6.549999999988019 0 0  6.624999999987873 0 0  6.699999999987728 0 0  6.774999999987587 0 0  6.849999999987441 0 0  6.924999999987296 0 0  6.999999999987153 0 0  7.074999999987007 0 0  7.149999999986864 0 0  7.224999999986718 0 0  7.299999999986575 0 0  7.374999999986429 0 0  7.449999999986284 0 0  7.524999999986141 0 0  7.599999999985997 0 0  7.674999999985852 0 0  7.749999999985706 0 0  7.824999999985563 0 0  7.89999999998542 0 0  7.974999999985274 0 0  8.049999999985129 0 0  8.124999999984986 0 0  8.19999999998484 0 0  8.274999999984697 0 0  8.349999999984554 0 0  8.424999999984408 0 0  8.499999999984261 0 0  8.574999999984119 0 0  8.649999999983976 0 0  8.724999999983829 0 0  8.799999999983685 0 0  8.874999999983542 0 0  8.949999999983397 0 0  9.024999999983253 0 0  9.099999999983106 0 0  9.174999999982964 0 0  9.249999999982817 0 0  9.324999999982674 0 0  9.399999999982532 0 0  9.474999999982385 0 0  9.549999999982241 0 0  9.624999999982094 0 0  9.699999999981955 0 0  9.774999999981809 0 0  9.849999999981662 0 0  9.924999999981519 0 0  9.999999999981375 0 0  10.07499999998123 0 0  10.14999999998109 0 0  10.22499999998094 0 0  10.2999999999808 0 0  10.37499999998065 0 0  10.44999999998051 0 0  10.52499999998036 0 0  10.59999999998022 0 0  10.67499999998007 0 0  10.74999999997993 0 0  10.82499999997979 0 0  10.89999999997964 0 0  10.9749999999795 0 0  11.04999999997935 0 0  11.12499999997921 0 0  11.19999999997906 0 0  11.27499999997892 0 0  11.34999999997877 0 0  11.42499999997863 0 0  11.49999999997848 0 0  11.57499999997834 0 0  11.6499999999782 0 0  11.72499999997805 0 0  11.79999999997791 0 0  11.87499999997776 0 0  11.94999999997762 0 0  12.02499999997748 0 0  12.09999999997733 0 0  12.17499999997719 0 0  12.24999999997704 0 0  12.3249999999769 0 0  12.39999999997675 0 0  12.47499999997661 0 0  12.54999999997646 0 0  12.62499999997632 0 0  12.69999999997617 0 0  12.77499999997603 0 0  12.84999999997589 0 0  12.92499999997574 0 0  12.9999999999756 0 0  13.07499999997545 0 0  13.14999999997531 0 0  13.22499999997516 0 0  13.29999999997502 0 0  13.37499999997488 0 0  13.44999999997473 0 0  13.52499999997459 0 0  13.59999999997444 0 0  13.6749999999743 0 0  13.74999999997415 0 0  13.82499999997401 0 0  13.89999999997386 0 0  13.97499999997372 0 0  14.04999999997358 0 0  14.12499999997343 0 0  14.19999999997329 0 0  14.27499999997314 0 0  14.349999999973 0 0  14.42499999997285 0 0  14.49999999997271 0 0  14.57499999997257 0 0  14.64999999997242 0 0  14.72499999997228 0 0  14.79999999997213 0 0  14.87499999997199 0 0  14.94999999997185 0 0  15.0249999999717 0 0  15.09999999997156 0 0  15.17499999997142 0 0  15.24999999997127 0 0  15.32499999997113 0 0  15.39999999997098 0 0  15.47499999997084 0 0  15.54999999997069 0 0  15.62499999997055 0 0  15.69999999997041 0 0  15.77499999997026 0 0  15.84999999997012 0 0  15.92499999996997 0 0  15.99999999996983 0 0  16.07499999996969 0 0  16.14999999996954 0 0  16.2249999999694 0 0  16.29999999996926 0 0  16.37499999996911 0 0  16.44999999996897 0 0  16.52499999996882 0 0  16.59999999996868 0 0  16.67499999996853 0 0  16.74999999996839 0 0  16.82499999996825 0 0  16.8999999999681 0 0  16.97499999996796 0 0  17.04999999996781 0 0  17.12499999996767 0 0  17.19999999996763 0 0  17.27499999996763 0 0  17.34999999996764 0 0  17.42499999996764 0 0  17.49999999996764 0 0  17.57499999996794 0 0  17.64999999996824 0 0  17.72499999996854 0 0  17.79999999996884 0 0  17.87499999996919 0 0  17.94999999996964 0 0  18.02499999997008 0 0  18.09999999997053 0 0  18.17499999997098 0 0  18.24999999997143 0 0  18.32499999997188 0 0  18.39999999997232 0 0  18.47499999997277 0 0  18.54999999997322 0 0  18.62499999997367 0 0  18.69999999997412 0 0  18.77499999997456 0 0  18.84999999997501 0 0  18.92499999997546 0 0  18.99999999997591 0 0  19.07499999997636 0 0  19.14999999997681 0 0  19.22499999997725 0 0  19.2999999999777 0 0  19.37499999997815 0 0  19.4499999999786 0 0  19.52499999997904 0 0  19.5999999999795 0 0  19.67499999997995 0 0  19.74999999998039 0 0  19.82499999998084 0 0  19.89999999998129 0 0  19.97499999998174 0 0  20.04999999998218 0 0  20.12499999998263 0 0  20.19999999998308 0 0  20.27499999998353 0 0  20.34999999998398 0 0  20.42499999998443 0 0  20.49999999998487 0 0  20.57499999998532 0 0  20.64999999998576 0 0  20.72499999998622 0 0  20.79999999998667 0 0  20.87499999998711 0 0  20.94999999998756 0 0  21.024999999988 0 0  21.09999999998846 0 0  21.17499999998891 0 0  21.24999999998935 0 0  21.3249999999898 0 0  21.39999999999025 0 0  21.4749999999907 0 0  21.54999999999115 0 0  21.62499999999159 0 0  21.69999999999204 0 0  21.77499999999249 0 0  21.84999999999294 0 0  21.92499999999339 0 0  21.99999999999383 0 0  22.07499999999428 0 0  22.14999999999473 0 0  22.22499999999518 0 0  22.29999999999563 0 0  22.37499999999607 0 0  22.44999999999652 0 0  22.52499999999697 0 0  22.59999999999742 0 0  22.67499999999787 0 0  22.74999999999831 0 0  22.82499999999876 0 0  22.89999999999922 0 0  22.97499999999966 0 0  23.05000000000011 0 0  23.12500000000055 0 0  23.200000000001 0 0  23.27500000000145 0 0  23.3500000000019 0 0  23.42500000000235 0 0  23.5000000000028 0 0  23.57500000000324 0 0  23.65000000000369 0 0  23.72500000000414 0 0  23.80000000000459 0 0  23.87500000000503 0 0  23.95000000000548 0 0  24.02500000000594 0 0  24.10000000000638 0 0  24.17500000000683 0 0  24.25000000000728 0 0  24.32500000000773 0 0  24.40000000000817 0 0  24.47500000000862 0 0  24.55000000000907 0 0  24.62500000000952 0 0  24.70000000000997 0 0  24.77500000001042 0 0  24.85000000001086 0 0  24.92500000001131 0 0  25.00000000001176 0 0  25.07500000001221 0 0  25.15000000001266 0 0  25.2250000000131 0 0  25.30000000001355 0 0  25.37500000001399 0 0  25.45000000001445 0 0  25.5250000000149 0 0  25.60000000001534 0 0  25.67500000001579 0 0  25.75000000001624 0 0  25.82500000001669 0 0  25.90000000001714 0 0  25.97500000001758 0 0  26.05000000001803 0 0  26.12500000001848 0 0  26.2000000000189
[...]
<PointData  Vectors="f_98-0"> 
<DataArray  type="Float64"  Name="f_98-0"  NumberOfComponents="3" format="ascii">1.6841178384003960e-01 0.0000000000000000e+00 0.0000000000000000e+00  -6.0853567542140298e-06 0.0000000000000000e+00 0.0000000000000000e+00  -2.4990629470951360e-09 -1.7910873206569863e-09 0.0000000000000000e+00  0.0000000000000000e+00 0.0000000000000000e+00 0.0000000000000000e+00  0.0000000000000000e+00 0.0000000000000000e+00 0.0000000000000000e+00  1.2402048802578522e-01 0.0000000000000000e+00 0.0000000000000000e+00  2.1212962346818705e+00 0.0000000000000000e+00 0.0000000000000000e+00  1.0880697368645481e-01 3.5250383276550883e-02 0.0000000000000000e+00  -7.4008770864238812e-03 3.5746931537631818e-03 0.0000000000000000e+00  0.0000000000000000e+00 0.0000000000000000e+00 0.0000000000000000e+00  0.0000000000000000e+00 0.0000000000000000e+00 0.0000000000000000e+00  -7.7470525207885887e-02 6.0793813939028697e-02 0.0000000000000000e+00  3.6420069182412723e-02 1.1541025162881416e-01 0.0000000000000000e+00  -1.7550352465034638e-01 2.7328172274390567e-02 0.0000000000000000e+00  0.0000000000000000e+00 0.0000000000000000e+00 0.0000000000000000e+00  0.0000000000000000e+00 0.0000000000000000e+00 0.0000000000000000e+00  -8.1827524476104126e-07 -5.4477443930632880e-08 0.0000000000000000e+00  1.4515497972638847e-01 0.0000000000000000e+00 0.0000000000000000e+00  9.4521895657184940e-02 0.0000000000000000e+00 0.0000000000000000e+00  5.5517384618086606e-02 0.0000000000000000e+00 0.0000000000000000e+00  2.5946385908023433e-02 0.0000000000000000e+00 0.0000000000000000e+00  7.9676716081132724e-03 0.0000000000000000e+00 0.0000000000000000e+00  -6.4848313085018100e-03 0.0000000000000000e+00 0.0000000000000000e+00  -1.3128656018721086e-02 0.0000000000000000e+00 0.0000000000000000e+00  -1.5451314244552828e-02 0.0000000000000000e+00 0.0000000000000000e+00  -1.7134212899945510e-02 0.0000000000000000e+00 0.0000000000000000e+00  -1.7234904047194070e-02 0.0000000000000000e+00 0.0000000000000000e+00  -1.8105236964700334e-02 0.0000000000000000e+00 0.0000000000000000e+00  -1.8592970057774039e-02 0.0000000000000000e+00 0.0000000000000000e+00  -1.9924782794768604e-02 0.0000000000000000e+00 0.0000000000000000e+00  -2.1644472147012712e-02 0.0000000000000000e+00 0.0000000000000000e+00  -2.4009247685602281e-02 0.0000000000000000e+00 0.0000000000000000e+00  -2.6953036410946728e-02 0.0000000000000000e+00 0.0000000000000000e+00  -3.0622110924259340e-02 0.0000000000000000e+00 0.0000000000000000e+00  -3.5076190914190918e-02 0.0000000000000000e+00 0.0000000000000000e+00  -4.0163012106719020e-02 0.0000000000000000e+00 0.0000000000000000e+00  -4.6105238620182828e-02 0.0000000000000000e+00 0.0000000000000000e+00  -5.2651166492792549e-02 0.0000000000000000e+00 0.0000000000000000e+00  -5.9682392121883011e-02 0.0000000000000000e+00 0.0000000000000000e+00  -6.7528587616601368e-02 0.0000000000000000e+00 0.0000000000000000e+00  -7.5596863600622496e-02 0.0000000000000000e+00 0.0000000000000000e+00  -8.4223122974724729e-02 0.0000000000000000e+00 0.0000000000000000e+00  -9.2901175517531215e-02 0.0000000000000000e+00 0.0000000000000000e+00  -1.0174035398462385e-01 0.0000000000000000e+00 0.0000000000000000e+00  -1.1048212256915524e-01 0.0000000000000000e+00 0.0000000000000000e+00  -1.1890061828573668e-01 0.0000000000000000e+00 0.0000000000000000e+00  -1.2686053757735949e-01 0.0000000000000000e+00 0.0000000000000000e+00  -1.3429447450752763e-01 0.0000000000000000e+00 0.0000000000000000e+00  -1.4067721375081166e-01 0.0000000000000000e+00 0.0000000000000000e+00  -1.4608196209951366e-01 0.0000000000000000e+00 0.0000000000000000e+00  -1.5019578903702541e-01 0.0000000000000000e+00 0.0000000000000000e+00  -1.5285145471971315e-01 0.0000000000000000e+00 0.0000000000000000e+00  -1.5397089471123540e-01 0.0000000000000000e+00 0.0000000000000000e+00  -1.5308371732442752e-01 0.0000000000000000e+00 0.0000000000000000e+00  -1.5057722611303528e-01 0.0000000000000000e+00 0.0000000000000000e+00  -1.4579834657361648e-01 0.0000000000000000e+00 0.0000000000000000e+00  -1.3926545112779434e-01 0.0000000000000000e+00 0.0000000000000000e+00  -1.3034688636064948e-01 0.0000000000000000e+00 0.0000000000000000e+00  -1.1926718311014371e-01 0.0000000000000000e+00 0.0000000000000000e+00  -1.0623565365418675e-01 0.0000000000000000e+00 0.0000000000000000e+00  -9.1202530125893022e-02 0.0000000000000000e+00 0.0000000000000000e+00  -7.4229096865985028e-02 0.0000000000000000e+00 0.0000000000000000e+00  -5.5423065375062641e-02 0.0000000000000000e+00 0.0000000000000000e+00  -3.5255215220405908e-02 0.0000000000000000e+00 0.0000000000000000e+00  -1.3475161365957240e-02 0.0000000000000000e+00 0.0000000000000000e+00  9.1833693124436580e-03 0.0000000000000000e+00 0.0000000000000000e+00  3.2647107996049675e-02 0.0000000000000000e+00 0.0000000000000000e+00  5.6662164616425419e-02 0.0000000000000000e+00 0.0000000000000000e+00  8.0782977556053154e-02 0.0000000000000000e+00 0.0000000000000000e+00  1.0466886809224177e-01 0.0000000000000000e+00 0.0000000000000000e+00  1.2797729820947201e-01 0.0000000000000000e+00 0.0000000000000000e+00  1.5036521355075796e-01 0.0000000000000000e+00 0.0000000000000000e+00  1.7140503440120075e-01 0.0000000000000000e+00 0.0000000000000000e+00  1.9083594680165764e-01 0.0000000000000000e+00 0.0000000000000000e+00  2.0821612155222263e-01 0.0000000000000000e+00 0.0000000000000000e+00  2.2344090559405330e-01 0.0000000000000000e+00 0.0000000000000000e+00  2.3551885627214836e-01 0.0000000000000000e+00 0.0000000000000000e+00  2.4556231449276419e-01 0.0000000000000000e+00 0.0000000000000000e+00  2.5137617680635588e-01 0.0000000000000000e+00 0.0000000000000000e+00  2.5475833884956012e-01 0.0000000000000000e+00 0.0000000000000000e+00  2.5420265154424815e-01 0.0000000000000000e+00 0.0000000000000000e+00  2.5006747765383708e-01 0.0000000000000000e+00 0.0000000000000000e+00  2.4257161416857598e-01 0.0000000000000000e+00 0.0000000000000000e+00  2.3155703794255245e-01 0.0000000000000000e+00 0.0000000000000000e+00  2.1746569062684901e-01 0.0000000000000000e+00 0.0000000000000000e+00  2.0036028281403126e-01 0.0000000000000000e+00 0.0000000000000000e+00  1.8027122175078222e-01 0.0000000000000000e+00 0.0000000000000000e+00  1.5862615015631476e-01 0.0000000000000000e+00 0.0000000000000000e+00  1.3518459377134678e-01 0.0000000000000000e+00 0.0000000000000000e+00  1.1074762510353545e-01 0.0000000000000000e+00 0.0000000000000000e+00  8.5874637527760631e-02 0.0000000000000000e+00 0.0000000000000000e+00  6.0681599334514467e-02 0.0000000000000000e+00 0.0000000000000000e+00  3.6278418896156038e-02 0.0000000000000000e+00 0.0000000000000000e+00  1.2711656871183846e-02 0.0000000000000000e+00 0.0000000000000000e+00  -9.5665675146643248e-03 0.0000000000000000e+00 0.0000000000000000e+00  -3.0009972024684292e-02 0.0000000000000000e+00 0.0000000000000000e+00  -4.8775202979081736e-02 0.0000000000000000e+00 0.0000000000000000e+00  -6.5280181711795685e-02 0.0000000000000000e+00 0.0000000000000000e+00  -7.9776501651331488e-02 0.0000000000000000e+00 0.0000000000000000e+00  -9.1839767654409196e-02 0.0000000000000000e+00 0.0000000000000000e+00  -1.0133606526471392e-01 0.0000000000000000e+00 0.0000000000000000e+00  -1.0876975498660874e-01 0.0000000000000000e+00 0.0000000000000000e+00  -1.1402008499803512e-01 0.0000000000000000e+00 0.0000000000000000e+00  -1.1684417177098021e-01 0.0000000000000000e+00 0.0000000000000000e+00  -1.1775627490733388e-01 0.0000000000000000e+00 0.0000000000000000e+00  -1.1661142338505635e-01 0.0000000000000000e+00 0.0000000000000000e+00  -1.1377382712971455e-01 0.0000000000000000e+00 0.0000000000000000e+00  -1.0931381098899262e-01 0.0000000000000000e+00 0.0000000000000000e+00  -1.0350312191991498e-01 0.0000000000000000e+00 0.0000000000000000e+00  -9.6362845327175747e-02 0.0000000000000000e+00 0.0000000000000000e+00  -8.8340372220128874e-02 0.0000000000000000e+00 0.0000000000000000e+00  -7.9484956307437335e-02 0.0000000000000000e+00 0.0000000000000000e+00  -7.0097131408151173e-02 0.0000000000000000e+00 0.0000000000000000e+00  -6.0196140177303979e-02 0.0000000000000000e+00 0.0000000000000000e+00  -5.0115132175642688e-02 0.0000000000000000e+00 0.0000000000000000e+00  -4.0018473716215933e-02 0.0000000000000000e+00 0.0000000000000000e+00  -2.9978299988900437e-02 0.0000000000000000e+00 0.0000000000000000e+00  -2.0368650681100386e-02 0.0000000000000000e+00 0.0000000000000000e+00  -1.1098401670521075e-02 0.0000000000000000e+00 0.0000000000000000e+00  -2.2366168280791503e-03 0.0000000000000000e+00 0.0000000000000000e+00  5.8367528365532778e-03 0.0000000000000000e+00 0.0000000000000000e+00  1.3245082029720244e-02 0.0000000000000000e+00 0.0000000000000000e+00  1.9868529528716324e-02 0.0000000000000000e+00 0.0000000000000000e+00  2.5528192173373827e-02 0.0000000000000000e+00 0.0000000000000000e+00  3.0427799935868579e-02 0.0000000000000000e+00 0.0000000000000000e+00  3.4350041108811312e-02 0.0000000000000000e+00 0.0000000000000000e+00  3.7469099410939101e-02 0.0000000000000000e+00 0.0000000000000000e+00  3.9605955064232666e-02 0.0000000000000000e+00 0.0000000000000000e+00  4.0759840630682234e-02 0.0000000000000000e+00 0.0000000000000000e+00  4.1225997896024859e-02 0.0000000000000000e+00 0.0000000000000000e+00  4.0879716247298657e-02 0.0000000000000000e+00 0.0000000000000000e+00  3.9819518713715911e-02 0.0000000000000000e+00 0.0000000000000000e+00  3.8057763995589328e-02 0.0000000000000000e+00 0.0000000000000000e+00  3.5650485054062042e-02 0.0000000000000000e+00 0.0000000000000000e+00  3.2757082868314302e-02 0.0000000000000000e+00 0.0000000000000000e+00  2.9445431473520231e-02 0.0000000000000000e+00 0.0000000000000000e+00  2.5758449884612584e-02 0.0000000000000000e+00 0.0000000000000000e+00  2.1778841313255075e-02 0.0000000000000000e+00 0.0000000000000000e+00  1.7646986345094994e-02 0.0000000000000000e+00 0.0000000000000000e+00  1.3429790561011642e-02 0.0000000000000000e+00 0.0000000000000000e+00  9.1803380867819580e-03 0.0000000000000000e+00 0.0000000000000000e+00  4.9730163678332580e-03 0.0000000000000000e+00 0.0000000000000000e+00  8.5782903029267511e-04 0.0000000000000000e+00 0.0000000000000000e+00  -3.0360171089135637e-03 0.0000000000000000e+00 0.0000000000000000e+00  -6.6986085263881640e-03 0.0000000000000000e+00 0.0000000000000000e+00  -9.9843663015174410e-03 0.0000000000000000e+00 0.0000000000000000e+00  -1.3043885190122640e-02 0.0000000000000000e+00 0.0000000000000000e+00  -1.5647646674435675e-02 0.0000000000000000e+00 0.0000000000000000e+00  -1.7900699715261793e-02 0.0000000000000000e+00 0.0000000000000000e+00  -1.9715621347470000e-02 0.0000000000000000e+00 0.0000000000000000e+00  -2.1056391763607126e-02 0.0000000000000000e+00 0.0000000000000000e+00  -2.1969382548886824e-02 0.0000000000000000e+00 0.0000000000000000e+00  -2.2446460002904026e-02 0.0000000000000000e+00 0.0000000000000000e+00  -2.2518801952849329e-02 0.0000000000000000e+00 0.0000000000000000e+00  -2.2133018401321387e-02 0.0000000000000000e+00 0.0000000000000000e+00  -2.1410995039884202e-02 0.0000000000000000e+00 0.0000000000000000e+00  -2.0313914190514541e-02 0.0000000000000000e+00 0.0000000000000000e+00  -1.8871417151431296e-02 0.0000000000000000e+00 0.0000000000000000e+00  -1.7191028238962583e-02 0.0000000000000000e+00 0.0000000000000000e+00  -1.5264847172052601e-02 0.0000000000000000e+00 0.0000000000000000e+00  -1.2991630262953819e-02 0.0000000000000000e+00 0.0000000000000000e+00  -1.0707749583167787e-02 0.0000000000000000e+00 0.0000000000000000e+00  -8.2526810237383164e-03 0.0000000000000000e+00 0.0000000000000000e+00  -5.8092743122989459e-03 0.0000000000000000e+00 0.0000000000000000e+00  -3.3029641396955592e-03 0.0000000000000000e+00 0.0000000000000000e+00  -8.8662175556226779e-04 0.0000000000000000e+00 0.0000000000000000e+00  1.6045931227732940e-03 0.0000000000000000e+00 0.0000000000000000e+00  3.9332381765846474e-03 0.0000000000000000e+00 0.0000000000000000e+00  6.1061500314009802e-03 0.0000000000000000e+00 0.0000000000000000e+00  8.1434995552490605e-03 0.0000000000000000e+00 0.0000000000000000e+00  9.8939475460157467e-03 0.0000000000000000e+00 0.0000000000000000e+00  1.1475420647674432e-02 0.0000000000000000e+00 0.0000000000000000e+00  1.2752650585629161e-02 0.0000000000000000e+00 0.0000000000000000e+00  1.3809453323912427e-02 0.0000000000000000e+00 0.0000000000000000e+00  1.4575794927956421e-02 0.0000000000000000e+00 0.0000000000000000e+00  1.5039622997604144e-02 0.0000000000000000e+00 0.0000000000000000e+00  1.5262062773495432e-02 0.0000000000000000e+00 0.0000000000000000e+00  1.5159040459521779e-02 0.0000000000000000e+00 0.0000000000000000e+00  1.4811993156674584e-02 0.0000000000000000e+00 0.0000000000000000e+00  1.4218513681040681e-02 0.0000000000000000e+00 0.0000000000000000e+00  1.3371927802183355e-02 0.0000000000000000e+00 0.0000000000000000e+00  1.2300756402468846e-02 0.0000000000000000e+00 0.0000000000000000e+00  1.1011468423491353e-02 0.0000000000000000e+00 0.0000000000000000e+00  9.5962467083203027e-03 0.0000000000000000e+00 0.0000000000000000e+00  8.0153856349458145e-03 0.0000000000000000e+00 0.0000000000000000e+00  6.3417387835148281e-03 0.0000000000000000e+00 0.0000000000000000e+00  4.5233768189502756e-03 0.0000000000000000e+00 0.0000000000000000e+00  2.6661213425809662e-03 0.0000000000000000e+00 0.0000000000000000e+00  7.8674967960944012e-04 0.0000000000000000e+00 0.0000000000000000e+00  -1.0667087993336017e-03 0.0000000000000000e+00 0.0000000000000000e+00  -2.8787068025372719e-03 0.0000000000000000e+00 0.0000000000000000e+00  -4.6256459694323749e-03 0.0000000000000000e+00 0.0000000000000000e+00  -6.2480906365243692e-03 0.0000000000000000e+00 0.0000000000000000e+00  -7.7708907863379851e-03 0.0000000000000000e+00 0.0000000000000000e+00  -9.2007547124173215e-03 0.0000000000000000e+00 0.0000000000000000e+00  -1.0370830384747540e-02 0.0000000000000000e+00 0.0000000000000000e+00  -1.1470585275518119e-02 0.0000000000000000e+00 0.0000000000000000e+00  -1.2253115912741220e-02 0.0000000000000000e+00 0.0000000000000000e+00  -1.2918765456377289e-02 0.0000000000000000e+00 0.0000000000000000e+00  -1.3276653482295668e-02 0.0000000000000000e+00 0.0000000000000000e+00  -1.3566081149924738e-02 0.0000000000000000e+00 0.0000000000000000e+00  -1.3476176631665964e-02 0.0000000000000000e+00 0.0000000000000000e+00  -1.3312309152370746e-02 0.0000000000000000e+00 0.0000000000000000e+00  -1.2858748373713402e-02 0.0000000000000000e+00 0.0000000000000000e+00  -1.2182132864570353e-02 0.0000000000000000e+00 0.0000000000000000e+00  -1.1410769238907964e-02 0.0000000000000000e+00 0.0000000000000000e+00  -1.0410268423362385e-02 0.0000000000000000e+00 0.0000000000000000e+00  -9.2433536456731826e-03 0.0000000000000000e+00 0.0000000000000000e+00  -7.9743042282604468e-03 0.0000000000000000e+00 0.0000000000000000e+00  -6.6081920848808599e-03 0.0000000000000000e+00 0.0000000000000000e+00  -5.1662156506421600e-03 0.0000000000000000e+00 0.0000000000000000e+00  -3.6266938556605110e-03 0.0000000000000000e+00 0.0000000000000000e+00  -2.0003856759979312e-03 0.0000000000000000e+00 0.0000000000000000e+00  -3.9940306424384955e-04 0.0000000000000000e+00 0.0000000000000000e+00  1.1928948847376650e-03 0.0000000000000000e+00 0.0000000000000000e+00  2.7510503300723051e-03 0.0000000000000000e+00 0.0000000000000000e+00  4.2134128280059500e-03 0.0000000000000000e+00 0.0000000000000000e+00  5.6744688294992924e-03 0.0000000000000000e+00 0.0000000000000000e+00  7.0365115514548328e-03 0.0000000000000000e+00 0.0000000000000000e+00  8.2386300725779057e-03 0.0000000000000000e+00 0.0000000000000000e+00  9.3095913717615129e-03 0.0000000000000000e+00 0.0000000000000000e+00  1.0262996098100314e-02 0.0000000000000000e+00 0.0000000000000000e+00  1.1058895818054472e-02 0.0000000000000000e+00 0.0000000000000000e+00  1.1674632474478192e-02 0.0000000000000000e+00 0.0000000000000000e+00  1.2130498214742077e-02 0.0000000000000000e+00 0.0000000000000000e+00  1.2377490497171219e-02 0.0000000000000000e+00 0.0000000000000000e+00  1.2440086667042027e-02 0.0000000000000000e+00 0.0000000000000000e+00  1.2338233839517005e-02 0.0000000000000000e+00 0.0000000000000000e+00  1.2077317452449249e-02 0.0000000000000000e+00 0.0000000000000000e+00  1.1596851514014319e-02 0.0000000000000000e+00 0.0000000000000000e+00  1.0990842215809905e-02 0.0000000000000000e+00 0.0000000000000000e+00  1.0218747475711450e-02 0.0000000000000000e+00 0.0000000000000000e+00  9.2984593721556312e-03 0.0000000000000000e+00 0.0000000000000000e+00  8.2700235392143759e-03 0.0000000000000000e+00 0.0000000000000000e+00  7.1155930114179767e-03 0.0000000000000000e+00 0.0000000000000000e+00  5.8783096313724187e-03 0.0000000000000000e+00 0.0000000000000000e+00  4.5704283737013560e-03 0.0000000000000000e+00 0.0000000000000000e+00  3.2135296177396521e-03 0.0000000000000000e+00 0.0000000000000000e+00  1.7956914599676552e-03 0.0000000000000000e+00 0.0000000000000000e+00  3.8328246652615102e-04 0.0000000000000000e+00 0.0000000000000000e+00  -1.0071079051043028e-03 0.0000000000000000e+00 0.0000000000000000e+00  -2.3880397241507834e-03 0.0000000000000000e+00 0.0000000000000000e+00  -3.7305813863404611e-03 0.0000000000000000e+00 0.0000000000000000e+00  -5.0051375767034296e-03 0.0000000000000000e+00 0.0000000000000000e+00  -6.1928733279700077e-03 0.0000000000000000e+00 0.0000000000000000e+00  -7.2843673257819300e-03 0.0000000000000000e+00 0.0000000000000000e+00  -8.2692558628183754e-03 0.0000000000000000e+00 0.0000000000000000e+00  -9.1355550337501867e-03 0.0000000000000000e+00 0.0000000000000000e+00  -9.8576123969424303e-03 0.0000000000000000e+00 0.0000000000000000e+00  -1.0462039094250268e-02 0.0000000000000000e+00 0.0000000000000000e+00  -1.0913951828883732e-02 0.0000000000000000e+00 0.0000000000000000e+00  -1.1173863120387154e-02 0.0000000000000000e+00 0.0000000000000000e+00  -1.1322207527043231e-02 0.0000000000000000e+00 0.0000000000000000e+00  -1.1312196003730127e-02 0.0000000000000000e+00 0.0000000000000000e+00  -1.1138808629607947e-02 0.0000000000000000e+00 0.0000000000000000e+00  -1.0828100139206839e-02 0.0000000000000000e+00 0.0000000000000000e+00  -1.0363066279663496e-02 0.0000000000000000e+00 0.0000000000000000e+00  -9.7718202653592334e-03 0.0000000000000000e+00 0.0000000000000000e+00  -9.0634899406188789e-03 0.0000000000000000e+00 0.0000000000000000e+00  -8.2378226070749985e-03 0.0000000000000000e+00 0.0000000000000000e+00  -7.3046595034434543e-03 0.0000000000000000e+00 0.0000000000000000e+00  -6.2989200075593919e-03 0.0000000000000000e+00 0.0000000000000000e+00  -5.2090577284299010e-03 0.0000000000000000e+00 0.0000000000000000e+00  -4.0774099997715457e-03 0.0000000000000000e+00 0.0000000000000000e+00  -2.8951852386591842e-03 0.0000000000000000e+00 0.0000000000000000e+00  -1.6892844897978508e-03 0.0000000000000000e+00 0.0000000000000000e+00  -4.8451203292148529e-04 0.0000000000000000e+00 0.0000000000000000e+00  7.1443023420462743e-04 0.0000000000000000e+00 0.0000000000000000e+00  1.8916558021824718e-03 0.0000000000000000e+00 0.0000000000000000e+00  3.0223530939573564e-03 0.0000000000000000e+00 0.0000000000000000e+00  4.1015242680999863e-03 0.0000000000000000e+00 0.0000000000000000e+00  5.1204719074560935e-03 0.0000000000000000e+00 0.0000000000000000e+00  6.0672304433264041e-03 0.0000000000000000e+00 0.0000000000000000e+00  6.8738037500950203e-03 0.0000000000000000e+00 0.0000000000000000e+00  7.6308809109582694e-03 0.0000000000000000e+00 0.0000000000000000e+00  8.2626245285128252e-03 0.0000000000000000e+00 0.0000000000000000e+00  8.7760632542416492e-03 0.0000000000000000e+00 0.0000000000000000e+00  9.1701052288109333e-03 0.0000000000000000e+00 0.0000000000000000e+00  9.4332164559239352e-03 0.0000000000000000e+00 0.0000000000000000e+00  9.5731542868553194e-03 0.0000000000000000e+00 0.0000000000000000e+00  9.5974710147077383e-03 0.0000000000000000e+00 0.0000000000000000e+00  9.4842567873376863e-03 0.0000000000000000e+00 0.0000000000000000e+