<?xml version="1.0"?>
<VTKFile type="UnstructuredGrid"  version="0.1"  >
<UnstructuredGrid>
<Piece  NumberOfPoints="25032" NumberOfCells="49121">
<Points>
<DataArray  type="Float64"  NumberOfComponents="3"  format="ascii">-5 0 0  40 0 0  40 10 0  0 10 0  0 1 0  -5 1 0  -5 0.75 0  5 0.75 0  5 1.25 0  0 1.25 0  0 1.075 0  1 1.075 0  1 0.925 0  -2 0.925 0  -2 1 0  0 1.5 0  40 1.5 0  -4.924999999999996 0 0  -4.849999999999993 0 0  -4.774999999999989 0 0  -4.699999999999985 0 0  -4.624999999999981 0 0  -4.549999999999978 0 0  -4.474999999999974 0 0  -4.39999999999997 0 0  -4.324999999999966 0 0  -4.249999999999963 0 0  -4.174999999999959 0 0  -4.099999999999955 0 0  -4.024999999999951 0 0  -3.949999999999947 0 0  -3.874999999999943 0 0  -3.79999999999994 0 0  -3.724999999999936 0 0  -3.649999999999932 0 0  -3.574999999999929 0 0  -3.499999999999925 0 0  -3.424999999999921 0 0  -3.349999999999917 0 0  -3.274999999999913 0 0  -3.19999999999993 0 0  -3.124999999999964 0 0  -3.049999999999997 0 0  -2.97500000000003 0 0  -2.900000000000063 0 0  -2.825000000000129 0 0  -2.750000000000199 0 0  -2.675000000000269 0 0  -2.600000000000339 0 0  -2.525000000000407 0 0  -2.450000000000458 0 0  -2.37500000000051 0 0  -2.300000000000562 0 0  -2.225000000000613 0 0  -2.150000000000647 0 0  -2.075000000000662 0 0  -2.000000000000676 0 0  -1.925000000000691 0 0  -1.850000000000705 0 0  -1.775000000000705 0 0  -1.700000000000702 0 0  -1.625000000000698 0 0  -1.550000000000694 0 0  -1.47500000000069 0 0  -1.400000000000686 0 0  -1.325000000000682 0 0  -1.250000000000679 0 0  -1.175000000000675 0 0  -1.100000000000671 0 0  -1.025000000000667 0 0  -0.9500000000006636 0 0  -0.875000000000659 0 0  -0.8000000000006553 0 0  -0.7250000000006516 0 0  -0.6500000000006478 0 0  -0.5750000000006441 0 0  -0.5000000000006395 0 0  -0.4250000000006366 0 0  -0.3500000000006329 0 0  -0.2750000000006292 0 0  -0.2000000000006246 0 0  -0.1250000000006208 0 0  -0.05000000000061799 0 0  0.02499999999938662 0 0  0.09999999999939035 0 0  0.1749999999993941 0 0  0.2499999999993978 0 0  0.3249999999993758 0 0  0.3999999999993431 0 0  0.4749999999993095 0 0  0.5499999999992768 0 0  0.6249999999992433 0 0  0.6999999999991351 0 0  0.7749999999990296 0 0  0.8499999999989214 0 0  0.9249999999988141 0 0  0.9999999999986944 0 0  1.074999999998552 0 0  1.149999999998407 0 0  1.224999999998261 0 0  1.299999999998119 0 0  1.374999999997974 0 0  1.44999999999783 0 0  1.524999999997685 0 0  1.599999999997541 0 0  1.674999999997397 0 0  1.749999999997253 0 0  1.824999999997109 0 0  1.899999999996965 0 0  1.974999999996821 0 0  2.049999999996677 0 0  2.124999999996531 0 0  2.199999999996388 0 0  2.274999999996243 0 0  2.349999999996101 0 0  2.424999999995955 0 0  2.49999999999581 0 0  2.574999999995668 0 0  2.649999999995523 0 0  2.724999999995378 0 0  2.799999999995234 0 0  2.874999999995089 0 0  2.949999999994946 0 0  3.024999999994801 0 0  3.099999999994658 0 0  3.174999999994514 0 0  3.249999999994371 0 0  3.324999999994224 0 0  3.39999999999408 0 0  3.474999999993937 0 0  3.549999999993792 0 0  3.624999999993648 0 0  3.699999999993503 0 0  3.774999999993359 0 0  3.849999999993216 0 0  3.924999999993071 0 0  3.999999999992927 0 0  4.074999999992784 0 0  4.149999999992639 0 0  4.224999999992495 0 0  4.29999999999235 0 0  4.374999999992207 0 0  4.449999999992063 0 0  4.524999999991918 0 0  4.599999999991773 0 0  4.674999999991629 0 0  4.749999999991484 0 0  4.82499999999134 0 0  4.899999999991195 0 0  4.974999999991052 0 0  5.049999999990908 0 0  5.124999999990763 0 0  5.199999999990617 0 0  5.274999999990472 0 0  5.349999999990329 0 0  5.424999999990185 0 0  5.49999999999004 0 0  5.574999999989895 0 0  5.649999999989751 0 0  5.724999999989608 0 0  5.799999999989463 0 0  5.874999999989317 0 0  5.949999999989172 0 0  6.024999999989028 0 0  6.099999999988885 0 0  6.17499999998874 0 0  6.249999999988596 0 0  6.324999999988451 0 0  6.399999999988305 0 0  6.474999999988162 0 0  6.549999999988019 0 0  6.624999999987873 0 0  6.699999999987728 0 0  6.774999999987587 0 0  6.849999999987441 0 0  6.924999999987296 0 0  6.999999999987153 0 0  7.074999999987007 0 0  7.149999999986864 0 0  7.224999999986718 0 0  7.299999999986575 0 0  7.374999999986429 0 0  7.449999999986284 0 0  7.524999999986141 0 0  7.599999999985997 0 0  7.674999999985852 0 0  7.749999999985706 0 0  7.824999999985563 0 0  7.89999999998542 0 0  7.974999999985274 0 0  8.049999999985129 0 0  8.124999999984986 0 0  8.19999999998484 0 0  8.274999999984697 0 0  8.349999999984554 0 0  8.424999999984408 0 0  8.499999999984261 0 0  8.574999999984119 0 0  8.649999999983976 0 0  8.724999999983829 0 0  8.799999999983685 0 0  8.874999999983542 0 0  8.949999999983397 0 0  9.024999999983253 0 0  9.099999999983106 0 0  9.174999999982964 0 0  9.249999999982817 0 0  9.324999999982674 0 0  9.399999999982532 0 0  9.474999999982385 0 0  9.549999999982241 0 0  9.624999999982094 0 0  9.699999999981955 0 0  9.774999999981809 0 0  9.849999999981662 0 0  9.924999999981519 0 0  9.999999999981375 0 0  10.07499999998123 0 0  10.14999999998109 0 0  10.22499999998094 0 0  10.2999999999808 0 0  10.37499999998065 0 0  10.44999999998051 0 0  10.52499999998036 0 0  10.59999999998022 0 0  10.67499999998007 0 0  10.74999999997993 0 0  10.82499999997979 0 0  10.89999999997964 0 0  10.9749999999795 0 0  11.04999999997935 0 0  11.12499999997921 0 0  11.19999999997906 0 0  11.27499999997892 0 0  11.34999999997877 0 0  11.42499999997863 0 0  11.49999999997848 0 0  11.57499999997834 0 0  11.6499999999782 0 0  11.72499999997805 0 0  11.79999999997791 0 0  11.87499999997776 0 0  11.94999999997762 0 0  12.02499999997748 0 0  12.09999999997733 0 0  12.17499999997719 0 0  12.24999999997704 0 0  12.3249999999769 0 0  12.39999999997675 0 0  12.47499999997661 0 0  12.54999999997646 0 0  12.62499999997632 0 0  12.69999999997617 0 0  12.77499999997603 0 0  12.84999999997589 0 0  12.92499999997574 0 0  12.9999999999756 0 0  13.07499999997545 0 0  13.14999999997531 0 0  13.22499999997516 0 0  13.29999999997502 0 0  13.37499999997488 0 0  13.44999999997473 0 0  13.52499999997459 0 0  13.59999999997444 0 0  13.6749999999743 0 0  13.74999999997415 0 0  13.82499999997401 0 0  13.89999999997386 0 0  13.97499999997372 0 0  14.04999999997358 0 0  14.12499999997343 0 0  14.19999999997329 0 0  14.27499999997314 0 0  14.349999999973 0 0  14.42499999997285 0 0  14.49999999997271 0 0  14.57499999997257 0 0  14.64999999997242 0 0  14.72499999997228 0 0  14.79999999997213 0 0  14.87499999997199 0 0  14.94999999997185 0 0  15.0249999999717 0 0  15.09999999997156 0 0  15.17499999997142 0 0  15.24999999997127 0 0  15.32499999997113 0 0  15.39999999997098 0 0  15.47499999997084 0 0  15.54999999997069 0 0  15.62499999997055 0 0  15.69999999997041 0 0  15.77499999997026 0 0  15.84999999997012 0 0  15.92499999996997 0 0  15.99999999996983 0 0  16.07499999996969 0 0  16.14999999996954 0 0  16.2249999999694 0 0  16.29999999996926 0 0  16.37499999996911 0 0  16.44999999996897 0 0  16.52499999996882 0 0  16.59999999996868 0 0  16.67499999996853 0 0  16.74999999996839 0 0  16.82499999996825 0 0  16.8999999999681 0 0  16.97499999996796 0 0  17.04999999996781 0 0  17.12499999996767 0 0  17.19999999996763 0 0  17.27499999996763 0 0  17.34999999996764 0 0  17.42499999996764 0 0  17.49999999996764 0 0  17.57499999996794 0 0  17.64999999996824 0 0  17.72499999996854 0 0  17.79999999996884 0 0  17.87499999996919 0 0  17.94999999996964 0 0  18.02499999997008 0 0  18.09999999997053 0 0  18.17499999997098 0 0  18.24999999997143 0 0  18.32499999997188 0 0  18.39999999997232 0 0  18.47499999997277 0 0  18.54999999997322 0 0  18.62499999997367 0 0  18.69999999997412 0 0  18.77499999997456 0 0  18.84999999997501 0 0  18.92499999997546 0 0  18.99999999997591 0 0  19.07499999997636 0 0  19.14999999997681 0 0  19.22499999997725 0 0  19.2999999999777 0 0  19.37499999997815 0 0  19.4499999999786 0 0  19.52499999997904 0 0  19.5999999999795 0 0  19.67499999997995 0 0  19.74999999998039 0 0  19.82499999998084 0 0  19.89999999998129 0 0  19.97499999998174 0 0  20.04999999998218 0 0  20.12499999998263 0 0  20.19999999998308 0 0  20.27499999998353 0 0  20.34999999998398 0 0  20.42499999998443 0 0  20.49999999998487 0 0  20.57499999998532 0 0  20.64999999998576 0 0  20.72499999998622 0 0  20.79999999998667 0 0  20.87499999998711 0 0  20.94999999998756 0 0  21.024999999988 0 0  21.09999999998846 0 0  21.17499999998891 0 0  21.24999999998935 0 0  21.3249999999898 0 0  21.39999999999025 0 0  21.4749999999907 0 0  21.54999999999115 0 0  21.62499999999159 0 0  21.69999999999204 0 0  21.77499999999249 0 0  21.84999999999294 0 0  21.92499999999339 0 0  21.99999999999383 0 0  22.07499999999428 0 0  22.14999999999473 0 0  22.22499999999518 0 0  22.29999999999563 0 0  22.37499999999607 0 0  22.44999999999652 0 0  22.52499999999697 0 0  22.59999999999742 0 0  22.67499999999787 0 0  22.74999999999831 0 0  22.82499999999876 0 0  22.89999999999922 0 0  22.97499999999966 0 0  23.05000000000011 0 0  23.12500000000055 0 0  23.200000000001 0 0  23.27500000000145 0 0  23.3500000000019 0 0  23.42500000000235 0 0  23.5000000000028 0 0  23.57500000000324 0 0  23.65000000000369 0 0  23.72500000000414 0 0  23.80000000000459 0 0  23.87500000000503 0 0  23.95000000000548 0 0  24.02500000000594 0 0  24.10000000000638 0 0  24.17500000000683 0 0  24.25000000000728 0 0  24.32500000000773 0 0  24.40000000000817 0 0  24.47500000000862 0 0  24.55000000000907 0 0  24.62500000000952 0 0  24.70000000000997 0 0  24.77500000001042 0 0  24.85000000001086 0 0  24.92500000001131 0 0  25.00000000001176 0 0  25.07500000001221 0 0  25.15000000001266 0 0  25.2250000000131 0 0  25.30000000001355 0 0  25.37500000001399 0 0  25.45000000001445 0 0  25.5250000000149 0 0  25.60000000001534 0 0  25.67500000001579 0 0  25.75000000001624 0 0  25.82500000001669 0 0  25.90000000001714 0 0  25.97500000001758 0 0  26.05000000001803 0 0  26.12500000001848 0 0  26.2000000000189
[...]
<PointData  Vectors="f_98-0"> 
<DataArray  type="Float64"  Name="f_98-0"  NumberOfComponents="3" format="ascii">-4.9389422022473739e-01 0.0000000000000000e+00 0.0000000000000000e+00  3.7828446314735173e+00 0.0000000000000000e+00 0.0000000000000000e+00  -2.3972569879259281e-05 -2.1306603699963205e-05 0.0000000000000000e+00  0.0000000000000000e+00 0.0000000000000000e+00 0.0000000000000000e+00  0.0000000000000000e+00 0.0000000000000000e+00 0.0000000000000000e+00  -8.8645734608156113e-02 0.0000000000000000e+00 0.0000000000000000e+00  5.0568759839616090e-02 0.0000000000000000e+00 0.0000000000000000e+00  -4.4613934106385315e+01 -3.0137709577907764e+01 0.0000000000000000e+00  1.0823979186439432e+01 -2.1941106916730202e+01 0.0000000000000000e+00  0.0000000000000000e+00 0.0000000000000000e+00 0.0000000000000000e+00  0.0000000000000000e+00 0.0000000000000000e+00 0.0000000000000000e+00  1.2435359105696149e+00 1.0687262614282378e+00 0.0000000000000000e+00  -8.2799260524859513e+00 5.7214341322583229e-01 0.0000000000000000e+00  -1.6620330079771786e+00 -1.3853243986006575e-01 0.0000000000000000e+00  0.0000000000000000e+00 0.0000000000000000e+00 0.0000000000000000e+00  0.0000000000000000e+00 0.0000000000000000e+00 0.0000000000000000e+00  1.0356739435762619e-01 1.5999122993971042e-02 0.0000000000000000e+00  -4.7324815148054383e-01 0.0000000000000000e+00 0.0000000000000000e+00  -4.7057103693359831e-01 0.0000000000000000e+00 0.0000000000000000e+00  -4.7113465911516056e-01 0.0000000000000000e+00 0.0000000000000000e+00  -4.6733542989101834e-01 0.0000000000000000e+00 0.0000000000000000e+00  -4.6727044446712523e-01 0.0000000000000000e+00 0.0000000000000000e+00  -4.6965506675608393e-01 0.0000000000000000e+00 0.0000000000000000e+00  -4.7560940269218477e-01 0.0000000000000000e+00 0.0000000000000000e+00  -4.8595239851824323e-01 0.0000000000000000e+00 0.0000000000000000e+00  -5.0048454885259319e-01 0.0000000000000000e+00 0.0000000000000000e+00  -5.1735713545437767e-01 0.0000000000000000e+00 0.0000000000000000e+00  -5.3462202068914655e-01 0.0000000000000000e+00 0.0000000000000000e+00  -5.5275965417367690e-01 0.0000000000000000e+00 0.0000000000000000e+00  -5.6696005967540553e-01 0.0000000000000000e+00 0.0000000000000000e+00  -5.7829553024393343e-01 0.0000000000000000e+00 0.0000000000000000e+00  -5.8246501699320574e-01 0.0000000000000000e+00 0.0000000000000000e+00  -5.8000793206515888e-01 0.0000000000000000e+00 0.0000000000000000e+00  -5.6518134970075729e-01 0.0000000000000000e+00 0.0000000000000000e+00  -5.3927513626775125e-01 0.0000000000000000e+00 0.0000000000000000e+00  -5.0003449367253838e-01 0.0000000000000000e+00 0.0000000000000000e+00  -4.4608567630330997e-01 0.0000000000000000e+00 0.0000000000000000e+00  -3.7618528366727522e-01 0.0000000000000000e+00 0.0000000000000000e+00  -2.9375992616246793e-01 0.0000000000000000e+00 0.0000000000000000e+00  -1.9307323348044214e-01 0.0000000000000000e+00 0.0000000000000000e+00  -7.9350917463559045e-02 0.0000000000000000e+00 0.0000000000000000e+00  4.5190069475735090e-02 0.0000000000000000e+00 0.0000000000000000e+00  1.8375951449914241e-01 0.0000000000000000e+00 0.0000000000000000e+00  3.3054070117915618e-01 0.0000000000000000e+00 0.0000000000000000e+00  4.8401377983951421e-01 0.0000000000000000e+00 0.0000000000000000e+00  6.4089291765440226e-01 0.0000000000000000e+00 0.0000000000000000e+00  7.9870566797627340e-01 0.0000000000000000e+00 0.0000000000000000e+00  9.5344498513787501e-01 0.0000000000000000e+00 0.0000000000000000e+00  1.1024503190359247e+00 0.0000000000000000e+00 0.0000000000000000e+00  1.2389260207916986e+00 0.0000000000000000e+00 0.0000000000000000e+00  1.3645279243158561e+00 0.0000000000000000e+00 0.0000000000000000e+00  1.4695677670333045e+00 0.0000000000000000e+00 0.0000000000000000e+00  1.5548745817108092e+00 0.0000000000000000e+00 0.0000000000000000e+00  1.6140892969467358e+00 0.0000000000000000e+00 0.0000000000000000e+00  1.6453081296296534e+00 0.0000000000000000e+00 0.0000000000000000e+00  1.6493632387641060e+00 0.0000000000000000e+00 0.0000000000000000e+00  1.6173868686519086e+00 0.0000000000000000e+00 0.0000000000000000e+00  1.5492249246950176e+00 0.0000000000000000e+00 0.0000000000000000e+00  1.4461032043409692e+00 0.0000000000000000e+00 0.0000000000000000e+00  1.3054839512474621e+00 0.0000000000000000e+00 0.0000000000000000e+00  1.1297368886108030e+00 0.0000000000000000e+00 0.0000000000000000e+00  9.1556211277580135e-01 0.0000000000000000e+00 0.0000000000000000e+00  6.6316551512067756e-01 0.0000000000000000e+00 0.0000000000000000e+00  3.8340018131034842e-01 0.0000000000000000e+00 0.0000000000000000e+00  6.4082530135097515e-02 0.0000000000000000e+00 0.0000000000000000e+00  -2.7632378172447614e-01 0.0000000000000000e+00 0.0000000000000000e+00  -6.4549965413482069e-01 0.0000000000000000e+00 0.0000000000000000e+00  -1.0332169341303876e+00 0.0000000000000000e+00 0.0000000000000000e+00  -1.4362670207285189e+00 0.0000000000000000e+00 0.0000000000000000e+00  -1.8478747749248499e+00 0.0000000000000000e+00 0.0000000000000000e+00  -2.2638785614766781e+00 0.0000000000000000e+00 0.0000000000000000e+00  -2.6825310596781198e+00 0.0000000000000000e+00 0.0000000000000000e+00  -3.0890414878013988e+00 0.0000000000000000e+00 0.0000000000000000e+00  -3.4870311823144045e+00 0.0000000000000000e+00 0.0000000000000000e+00  -3.8626999281672458e+00 0.0000000000000000e+00 0.0000000000000000e+00  -4.2185065117580205e+00 0.0000000000000000e+00 0.0000000000000000e+00  -4.5455013538099385e+00 0.0000000000000000e+00 0.0000000000000000e+00  -4.8416729981053050e+00 0.0000000000000000e+00 0.0000000000000000e+00  -5.1027867540349501e+00 0.0000000000000000e+00 0.0000000000000000e+00  -5.3289836094371816e+00 0.0000000000000000e+00 0.0000000000000000e+00  -5.5169118413370128e+00 0.0000000000000000e+00 0.0000000000000000e+00  -5.6670731512792658e+00 0.0000000000000000e+00 0.0000000000000000e+00  -5.7783888175738021e+00 0.0000000000000000e+00 0.0000000000000000e+00  -5.8478574912835439e+00 0.0000000000000000e+00 0.0000000000000000e+00  -5.8775253890606090e+00 0.0000000000000000e+00 0.0000000000000000e+00  -5.8662922707348564e+00 0.0000000000000000e+00 0.0000000000000000e+00  -5.8035176546445957e+00 0.0000000000000000e+00 0.0000000000000000e+00  -5.6925993275476063e+00 0.0000000000000000e+00 0.0000000000000000e+00  -5.5208494872085936e+00 0.0000000000000000e+00 0.0000000000000000e+00  -5.2791796732641414e+00 0.0000000000000000e+00 0.0000000000000000e+00  -4.9610823850076358e+00 0.0000000000000000e+00 0.0000000000000000e+00  -4.5553990798649302e+00 0.0000000000000000e+00 0.0000000000000000e+00  -4.0468397206498938e+00 0.0000000000000000e+00 0.0000000000000000e+00  -3.4240066175237920e+00 0.0000000000000000e+00 0.0000000000000000e+00  -2.6912629968717714e+00 0.0000000000000000e+00 0.0000000000000000e+00  -1.8214059184097355e+00 0.0000000000000000e+00 0.0000000000000000e+00  -8.2111239292774552e-01 0.0000000000000000e+00 0.0000000000000000e+00  3.0423943695883626e-01 0.0000000000000000e+00 0.0000000000000000e+00  1.5624710401898279e+00 0.0000000000000000e+00 0.0000000000000000e+00  2.9653226312503018e+00 0.0000000000000000e+00 0.0000000000000000e+00  4.4481832894457227e+00 0.0000000000000000e+00 0.0000000000000000e+00  6.0719886209035963e+00 0.0000000000000000e+00 0.0000000000000000e+00  7.7344554154095615e+00 0.0000000000000000e+00 0.0000000000000000e+00  9.4950009064116436e+00 0.0000000000000000e+00 0.0000000000000000e+00  1.1263959782875787e+01 0.0000000000000000e+00 0.0000000000000000e+00  1.3041061024605890e+01 0.0000000000000000e+00 0.0000000000000000e+00  1.4787921400459290e+01 0.0000000000000000e+00 0.0000000000000000e+00  1.6456308038236273e+01 0.0000000000000000e+00 0.0000000000000000e+00  1.8014352531847148e+01 0.0000000000000000e+00 0.0000000000000000e+00  1.9428764252407912e+01 0.0000000000000000e+00 0.0000000000000000e+00  2.0635226262271729e+01 0.0000000000000000e+00 0.0000000000000000e+00  2.1626676456154055e+01 0.0000000000000000e+00 0.0000000000000000e+00  2.2328429099259917e+01 0.0000000000000000e+00 0.0000000000000000e+00  2.2716494927914095e+01 0.0000000000000000e+00 0.0000000000000000e+00  2.2789093652592719e+01 0.0000000000000000e+00 0.0000000000000000e+00  2.2445132786903656e+01 0.0000000000000000e+00 0.0000000000000000e+00  2.1765131196093431e+01 0.0000000000000000e+00 0.0000000000000000e+00  2.0599906695373146e+01 0.0000000000000000e+00 0.0000000000000000e+00  1.9048012463134857e+01 0.0000000000000000e+00 0.0000000000000000e+00  1.7072413166834131e+01 0.0000000000000000e+00 0.0000000000000000e+00  1.4628598089427193e+01 0.0000000000000000e+00 0.0000000000000000e+00  1.1796331185864615e+01 0.0000000000000000e+00 0.0000000000000000e+00  8.5897064531824423e+00 0.0000000000000000e+00 0.0000000000000000e+00  4.9855523738726877e+00 0.0000000000000000e+00 0.0000000000000000e+00  1.0850606919797938e+00 0.0000000000000000e+00 0.0000000000000000e+00  -3.0933937320586242e+00 0.0000000000000000e+00 0.0000000000000000e+00  -7.4642597995157072e+00 0.0000000000000000e+00 0.0000000000000000e+00  -1.2035361672921399e+01 0.0000000000000000e+00 0.0000000000000000e+00  -1.6624239625400278e+01 0.0000000000000000e+00 0.0000000000000000e+00  -2.1269571116835571e+01 0.0000000000000000e+00 0.0000000000000000e+00  -2.5799327292779548e+01 0.0000000000000000e+00 0.0000000000000000e+00  -3.0186402931296673e+01 0.0000000000000000e+00 0.0000000000000000e+00  -3.4314758115666287e+01 0.0000000000000000e+00 0.0000000000000000e+00  -3.8125655718198644e+01 0.0000000000000000e+00 0.0000000000000000e+00  -4.1494195230848021e+01 0.0000000000000000e+00 0.0000000000000000e+00  -4.4364847414796415e+01 0.0000000000000000e+00 0.0000000000000000e+00  -4.6679882491846648e+01 0.0000000000000000e+00 0.0000000000000000e+00  -4.8321023623079064e+01 0.0000000000000000e+00 0.0000000000000000e+00  -4.9246081998247874e+01 0.0000000000000000e+00 0.0000000000000000e+00  -4.9449003415945995e+01 0.0000000000000000e+00 0.0000000000000000e+00  -4.8838092948601087e+01 0.0000000000000000e+00 0.0000000000000000e+00  -4.7335980604912010e+01 0.0000000000000000e+00 0.0000000000000000e+00  -4.5101450614982092e+01 0.0000000000000000e+00 0.0000000000000000e+00  -4.1883115549748254e+01 0.0000000000000000e+00 0.0000000000000000e+00  -3.7999456579930133e+01 0.0000000000000000e+00 0.0000000000000000e+00  -3.3152633276387675e+01 0.0000000000000000e+00 0.0000000000000000e+00  -2.7660156840646060e+01 0.0000000000000000e+00 0.0000000000000000e+00  -2.1380026883989117e+01 0.0000000000000000e+00 0.0000000000000000e+00  -1.4500907507554128e+01 0.0000000000000000e+00 0.0000000000000000e+00  -7.1051888876617522e+00 0.0000000000000000e+00 0.0000000000000000e+00  7.5104123730007188e-01 0.0000000000000000e+00 0.0000000000000000e+00  8.9172965097149817e+00 0.0000000000000000e+00 0.0000000000000000e+00  1.7233033841709108e+01 0.0000000000000000e+00 0.0000000000000000e+00  2.5703878749628380e+01 0.0000000000000000e+00 0.0000000000000000e+00  3.4053149130523487e+01 0.0000000000000000e+00 0.0000000000000000e+00  4.2217209273203757e+01 0.0000000000000000e+00 0.0000000000000000e+00  4.9995267348545973e+01 0.0000000000000000e+00 0.0000000000000000e+00  5.7345454717873338e+01 0.0000000000000000e+00 0.0000000000000000e+00  6.3982127462681476e+01 0.0000000000000000e+00 0.0000000000000000e+00  6.9940002534785307e+01 0.0000000000000000e+00 0.0000000000000000e+00  7.4881714959267441e+01 0.0000000000000000e+00 0.0000000000000000e+00  7.8902341876052148e+01 0.0000000000000000e+00 0.0000000000000000e+00  8.1871770440202482e+01 0.0000000000000000e+00 0.0000000000000000e+00  8.3577111200080410e+01 0.0000000000000000e+00 0.0000000000000000e+00  8.4090749900599405e+01 0.0000000000000000e+00 0.0000000000000000e+00  8.3303398816454916e+01 0.0000000000000000e+00 0.0000000000000000e+00  8.0868414507606403e+01 0.0000000000000000e+00 0.0000000000000000e+00  7.7535384477609725e+01 0.0000000000000000e+00 0.0000000000000000e+00  7.2758539329100856e+01 0.0000000000000000e+00 0.0000000000000000e+00  6.6576595911751724e+01 0.0000000000000000e+00 0.0000000000000000e+00  5.9189584754839814e+01 0.0000000000000000e+00 0.0000000000000000e+00  5.0601541161151147e+01 0.0000000000000000e+00 0.0000000000000000e+00  4.1109755226267652e+01 0.0000000000000000e+00 0.0000000000000000e+00  3.0659915045267315e+01 0.0000000000000000e+00 0.0000000000000000e+00  1.9325406485939666e+01 0.0000000000000000e+00 0.0000000000000000e+00  7.4647578373994428e+00 0.0000000000000000e+00 0.0000000000000000e+00  -4.9109670185427508e+00 0.0000000000000000e+00 0.0000000000000000e+00  -1.7521401471122314e+01 0.0000000000000000e+00 0.0000000000000000e+00  -3.0239068339883538e+01 0.0000000000000000e+00 0.0000000000000000e+00  -4.2838222272440902e+01 0.0000000000000000e+00 0.0000000000000000e+00  -5.5084913717313448e+01 0.0000000000000000e+00 0.0000000000000000e+00  -6.6815322686519451e+01 0.0000000000000000e+00 0.0000000000000000e+00  -7.7842876185090930e+01 0.0000000000000000e+00 0.0000000000000000e+00  -8.8080601858980401e+01 0.0000000000000000e+00 0.0000000000000000e+00  -9.7047750639447870e+01 0.0000000000000000e+00 0.0000000000000000e+00  -1.0488405285536098e+02 0.0000000000000000e+00 0.0000000000000000e+00  -1.1120798104629547e+02 0.0000000000000000e+00 0.0000000000000000e+00  -1.1608859304481402e+02 0.0000000000000000e+00 0.0000000000000000e+00  -1.1923469765347927e+02 0.0000000000000000e+00 0.0000000000000000e+00  -1.2079974332551497e+02 0.0000000000000000e+00 0.0000000000000000e+00  -1.2044899796799457e+02 0.0000000000000000e+00 0.0000000000000000e+00  -1.1835968387296374e+02 0.0000000000000000e+00 0.0000000000000000e+00  -1.1435845356790057e+02 0.0000000000000000e+00 0.0000000000000000e+00  -1.0860677059750790e+02 0.0000000000000000e+00 0.0000000000000000e+00  -1.0117189726982899e+02 0.0000000000000000e+00 0.0000000000000000e+00  -9.1959705767447076e+01 0.0000000000000000e+00 0.0000000000000000e+00  -8.1271218451199502e+01 0.0000000000000000e+00 0.0000000000000000e+00  -6.9083734396849479e+01 0.0000000000000000e+00 0.0000000000000000e+00  -5.5685604496723727e+01 0.0000000000000000e+00 0.0000000000000000e+00  -4.1229002352770081e+01 0.0000000000000000e+00 0.0000000000000000e+00  -2.5833369349049423e+01 0.0000000000000000e+00 0.0000000000000000e+00  -9.8377650588994605e+00 0.0000000000000000e+00 0.0000000000000000e+00  6.6092813579628809e+00 0.0000000000000000e+00 0.0000000000000000e+00  2.3261242701346546e+01 0.0000000000000000e+00 0.0000000000000000e+00  3.9839142869568619e+01 0.0000000000000000e+00 0.0000000000000000e+00  5.6101425610123130e+01 0.0000000000000000e+00 0.0000000000000000e+00  7.1774665404621857e+01 0.0000000000000000e+00 0.0000000000000000e+00  8.6718206617673829e+01 0.0000000000000000e+00 0.0000000000000000e+00  1.0048982328214255e+02 0.0000000000000000e+00 0.0000000000000000e+00  1.1323510208668978e+02 0.0000000000000000e+00 0.0000000000000000e+00  1.2423856206113288e+02 0.0000000000000000e+00 0.0000000000000000e+00  1.3384931899803178e+02 0.0000000000000000e+00 0.0000000000000000e+00  1.4128695176555931e+02 0.0000000000000000e+00 0.0000000000000000e+00  1.4710553578186918e+02 0.0000000000000000e+00 0.0000000000000000e+00  1.5064987222052358e+02 0.0000000000000000e+00 0.0000000000000000e+00  1.5236596271117998e+02 0.0000000000000000e+00 0.0000000000000000e+00  1.5137677512907601e+02 0.0000000000000000e+00 0.0000000000000000e+00  1.4879069873985270e+02 0.0000000000000000e+00 0.0000000000000000e+00  1.4337346984863206e+02 0.0000000000000000e+00 0.0000000000000000e+00  1.3637042979155893e+02 0.0000000000000000e+00 0.0000000000000000e+00  1.2706590592806515e+02 0.0000000000000000e+00 0.0000000000000000e+00  1.1590399137075734e+02 0.0000000000000000e+00 0.0000000000000000e+00  1.0281275766815824e+02 0.0000000000000000e+00 0.0000000000000000e+00  8.8288642669249825e+01 0.0000000000000000e+00 0.0000000000000000e+00  7.2205481423317480e+01 0.0000000000000000e+00 0.0000000000000000e+00  5.5071541449863773e+01 0.0000000000000000e+00 0.0000000000000000e+00  3.6901469136554319e+01 0.0000000000000000e+00 0.0000000000000000e+00  1.8054489980951352e+01 0.0000000000000000e+00 0.0000000000000000e+00  -1.2267246957936475e+00 0.0000000000000000e+00 0.0000000000000000e+00  -2.0614889616543685e+01 0.0000000000000000e+00 0.0000000000000000e+00  -3.9942149306982792e+01 0.0000000000000000e+00 0.0000000000000000e+00  -5.8739830281313971e+01 0.0000000000000000e+00 0.0000000000000000e+00  -7.6988891021193965e+01 0.0000000000000000e+00 0.0000000000000000e+00  -9.4102106006105927e+01 0.0000000000000000e+00 0.0000000000000000e+00  -1.1017552856065480e+02 0.0000000000000000e+00 0.0000000000000000e+00  -1.2481441594036988e+02 0.0000000000000000e+00 0.0000000000000000e+00  -1.3755033721688631e+02 0.0000000000000000e+00 0.0000000000000000e+00  -1.4866097851040760e+02 0.0000000000000000e+00 0.0000000000000000e+00  -1.5757643894050449e+02 0.0000000000000000e+00 0.0000000000000000e+00  -1.6449114723896619e+02 0.0000000000000000e+00 0.0000000000000000e+00  -1.6888807266477588e+02 0.0000000000000000e+00 0.0000000000000000e+00  -1.7117561464113700e+02 0.0000000000000000e+00 0.0000000000000000e+00  -1.7093361742283804e+02 0.0000000000000000e+00 0.0000000000000000e+00  -1.6837155771993127e+02 0.0000000000000000e+00 0.0000000000000000e+00  -1.6331883866504410e+02 0.0000000000000000e+00 0.0000000000000000e+00  -1.5613203950037374e+02 0.0000000000000000e+00 0.0000000000000000e+00  -1.4672469591120142e+02 0.0000000000000000e+00 0.0000000000000000e+00  -1.3508519695333410e+02 0.0000000000000000e+00 0.0000000000000000e+00  -1.2164252758960529e+02 0.0000000000000000e+00 0.0000000000000000e+00  -1.0643075192494534e+02 0.0000000000000000e+00 0.0000000000000000e+00  -8.9734846536170423e+01 0.0000000000000000e+00 0.0000000000000000e+00  -7.1706612885284443e+01 0.0000000000000000e+00 0.0000000000000000e+00  -5.2675492257616909e+01 0.0000000000000000e+00 0.0000000000000000e+00  -3.2932787006782149e+01 0.0000000000000000e+00 0.0000000000000000e+00  -1.2601597978298411e+01 0.0000000000000000e+00 0.0000000000000000e+00  7.8081693016868314e+00 0.0000000000000000e+00 0.0000000000000000e+00  2.8230315128124516e+01 0.0000000000000000e+00 0.0000000000000000e+00  4.8292468425042188e+01 0.0000000000000000e+00 0.0000000000000000e+00  6.7544880151639063e+01 0.0000000000000000e+00 0.0000000000000000e+00  8.6046830179512853e+01 0.0000000000000000e+00 0.0000000000000000e+00  1.0322396892439889e+02 0.0000000000000000e+00 0.0000000000000000e+00  1.1912350178499646e+02 0.0000000000000000e+00 0.0000000000000000e+00  1.3317322805927259e+02 0.0000000000000000e+00 0.0000000000000000e+00  1.4560172327491154e+02 0.0000000000000000e+00 0.0000000000000000e+00  1.5586421148568277e+02 0.0000000000000000e+00 0.0000000000000000e+00  1.6411632693706653e+02 0.0000000000000000e+00 0.0000000000000000e+00  1.6992733816719277e+02 0.0000000000000000e+00 0.0000000000000000e+00  1.7361184562522985e+02 0.0000000000000000e+00 0.0000000000000000e+00  1.7493578063060619e+02 0.0000000000000000e+00 0.0000000000000000e+00  1.7362070708582149e+02 0.0000000000000000e+00 0.0000000000000000e+00  1.7018300508198050e+02 0.0000000000000000e+00 0.0000000000000000e+00  1.6428378011023179e+02 0.0000000000000000e+00 0.0000000000000000e+00  1.5633717739959724e+02 0.0000000000000000e+00 0.0000000000000000e+00  1.4608616265058001e+02 0.0000000000000000e+00 0.0000000000000000e+00  1.3411052001822037e+02 0.0000000000000000e+00 0.0000000000000000e+00  1.2016014042377199e+02 0.0000000000000000e+00 0.0000000000000000e+00  1.0480537201997805e+02 0.0000000000000000e+00 0.0000000000000000e+00  8.7979307539133117e+01 0.0000000000000000e+00 0.0000000000000000e+00  7.0130647725198770e+01 0.0000000000000000e+00 0.0000000000000000e+00  5.1345905165011231e+01 0.0000000000000000e+00 0.0000000000000000e+00  3.2024001102888533e+01 0.0000000000000000e+00 0.0000000000000000e+00  1.2296764388198355e+01 0.0000000000000000e+00 0.0000000000000000e+00  -7.4