<?xml version="1.0"?>
<VTKFile type="UnstructuredGrid"  version="0.1"  >
<UnstructuredGrid>
<Piece  NumberOfPoints="25032" NumberOfCells="49121">
<Points>
<DataArray  type="Float64"  NumberOfComponents="3"  format="ascii">-5 0 0  40 0 0  40 10 0  0 10 0  0 1 0  -5 1 0  -5 0.75 0  5 0.75 0  5 1.25 0  0 1.25 0  0 1.075 0  1 1.075 0  1 0.925 0  -2 0.925 0  -2 1 0  0 1.5 0  40 1.5 0  -4.924999999999996 0 0  -4.849999999999993 0 0  -4.774999999999989 0 0  -4.699999999999985 0 0  -4.624999999999981 0 0  -4.549999999999978 0 0  -4.474999999999974 0 0  -4.39999999999997 0 0  -4.324999999999966 0 0  -4.249999999999963 0 0  -4.174999999999959 0 0  -4.099999999999955 0 0  -4.024999999999951 0 0  -3.949999999999947 0 0  -3.874999999999943 0 0  -3.79999999999994 0 0  -3.724999999999936 0 0  -3.649999999999932 0 0  -3.574999999999929 0 0  -3.499999999999925 0 0  -3.424999999999921 0 0  -3.349999999999917 0 0  -3.274999999999913 0 0  -3.19999999999993 0 0  -3.124999999999964 0 0  -3.049999999999997 0 0  -2.97500000000003 0 0  -2.900000000000063 0 0  -2.825000000000129 0 0  -2.750000000000199 0 0  -2.675000000000269 0 0  -2.600000000000339 0 0  -2.525000000000407 0 0  -2.450000000000458 0 0  -2.37500000000051 0 0  -2.300000000000562 0 0  -2.225000000000613 0 0  -2.150000000000647 0 0  -2.075000000000662 0 0  -2.000000000000676 0 0  -1.925000000000691 0 0  -1.850000000000705 0 0  -1.775000000000705 0 0  -1.700000000000702 0 0  -1.625000000000698 0 0  -1.550000000000694 0 0  -1.47500000000069 0 0  -1.400000000000686 0 0  -1.325000000000682 0 0  -1.250000000000679 0 0  -1.175000000000675 0 0  -1.100000000000671 0 0  -1.025000000000667 0 0  -0.9500000000006636 0 0  -0.875000000000659 0 0  -0.8000000000006553 0 0  -0.7250000000006516 0 0  -0.6500000000006478 0 0  -0.5750000000006441 0 0  -0.5000000000006395 0 0  -0.4250000000006366 0 0  -0.3500000000006329 0 0  -0.2750000000006292 0 0  -0.2000000000006246 0 0  -0.1250000000006208 0 0  -0.05000000000061799 0 0  0.02499999999938662 0 0  0.09999999999939035 0 0  0.1749999999993941 0 0  0.2499999999993978 0 0  0.3249999999993758 0 0  0.3999999999993431 0 0  0.4749999999993095 0 0  0.5499999999992768 0 0  0.6249999999992433 0 0  0.6999999999991351 0 0  0.7749999999990296 0 0  0.8499999999989214 0 0  0.9249999999988141 0 0  0.9999999999986944 0 0  1.074999999998552 0 0  1.149999999998407 0 0  1.224999999998261 0 0  1.299999999998119 0 0  1.374999999997974 0 0  1.44999999999783 0 0  1.524999999997685 0 0  1.599999999997541 0 0  1.674999999997397 0 0  1.749999999997253 0 0  1.824999999997109 0 0  1.899999999996965 0 0  1.974999999996821 0 0  2.049999999996677 0 0  2.124999999996531 0 0  2.199999999996388 0 0  2.274999999996243 0 0  2.349999999996101 0 0  2.424999999995955 0 0  2.49999999999581 0 0  2.574999999995668 0 0  2.649999999995523 0 0  2.724999999995378 0 0  2.799999999995234 0 0  2.874999999995089 0 0  2.949999999994946 0 0  3.024999999994801 0 0  3.099999999994658 0 0  3.174999999994514 0 0  3.249999999994371 0 0  3.324999999994224 0 0  3.39999999999408 0 0  3.474999999993937 0 0  3.549999999993792 0 0  3.624999999993648 0 0  3.699999999993503 0 0  3.774999999993359 0 0  3.849999999993216 0 0  3.924999999993071 0 0  3.999999999992927 0 0  4.074999999992784 0 0  4.149999999992639 0 0  4.224999999992495 0 0  4.29999999999235 0 0  4.374999999992207 0 0  4.449999999992063 0 0  4.524999999991918 0 0  4.599999999991773 0 0  4.674999999991629 0 0  4.749999999991484 0 0  4.82499999999134 0 0  4.899999999991195 0 0  4.974999999991052 0 0  5.049999999990908 0 0  5.124999999990763 0 0  5.199999999990617 0 0  5.274999999990472 0 0  5.349999999990329 0 0  5.424999999990185 0 0  5.49999999999004 0 0  5.574999999989895 0 0  5.649999999989751 0 0  5.724999999989608 0 0  5.799999999989463 0 0  5.874999999989317 0 0  5.949999999989172 0 0  6.024999999989028 0 0  6.099999999988885 0 0  6.17499999998874 0 0  6.249999999988596 0 0  6.324999999988451 0 0  6.399999999988305 0 0  6.474999999988162 0 0  6.549999999988019 0 0  6.624999999987873 0 0  6.699999999987728 0 0  6.774999999987587 0 0  6.849999999987441 0 0  6.924999999987296 0 0  6.999999999987153 0 0  7.074999999987007 0 0  7.149999999986864 0 0  7.224999999986718 0 0  7.299999999986575 0 0  7.374999999986429 0 0  7.449999999986284 0 0  7.524999999986141 0 0  7.599999999985997 0 0  7.674999999985852 0 0  7.749999999985706 0 0  7.824999999985563 0 0  7.89999999998542 0 0  7.974999999985274 0 0  8.049999999985129 0 0  8.124999999984986 0 0  8.19999999998484 0 0  8.274999999984697 0 0  8.349999999984554 0 0  8.424999999984408 0 0  8.499999999984261 0 0  8.574999999984119 0 0  8.649999999983976 0 0  8.724999999983829 0 0  8.799999999983685 0 0  8.874999999983542 0 0  8.949999999983397 0 0  9.024999999983253 0 0  9.099999999983106 0 0  9.174999999982964 0 0  9.249999999982817 0 0  9.324999999982674 0 0  9.399999999982532 0 0  9.474999999982385 0 0  9.549999999982241 0 0  9.624999999982094 0 0  9.699999999981955 0 0  9.774999999981809 0 0  9.849999999981662 0 0  9.924999999981519 0 0  9.999999999981375 0 0  10.07499999998123 0 0  10.14999999998109 0 0  10.22499999998094 0 0  10.2999999999808 0 0  10.37499999998065 0 0  10.44999999998051 0 0  10.52499999998036 0 0  10.59999999998022 0 0  10.67499999998007 0 0  10.74999999997993 0 0  10.82499999997979 0 0  10.89999999997964 0 0  10.9749999999795 0 0  11.04999999997935 0 0  11.12499999997921 0 0  11.19999999997906 0 0  11.27499999997892 0 0  11.34999999997877 0 0  11.42499999997863 0 0  11.49999999997848 0 0  11.57499999997834 0 0  11.6499999999782 0 0  11.72499999997805 0 0  11.79999999997791 0 0  11.87499999997776 0 0  11.94999999997762 0 0  12.02499999997748 0 0  12.09999999997733 0 0  12.17499999997719 0 0  12.24999999997704 0 0  12.3249999999769 0 0  12.39999999997675 0 0  12.47499999997661 0 0  12.54999999997646 0 0  12.62499999997632 0 0  12.69999999997617 0 0  12.77499999997603 0 0  12.84999999997589 0 0  12.92499999997574 0 0  12.9999999999756 0 0  13.07499999997545 0 0  13.14999999997531 0 0  13.22499999997516 0 0  13.29999999997502 0 0  13.37499999997488 0 0  13.44999999997473 0 0  13.52499999997459 0 0  13.59999999997444 0 0  13.6749999999743 0 0  13.74999999997415 0 0  13.82499999997401 0 0  13.89999999997386 0 0  13.97499999997372 0 0  14.04999999997358 0 0  14.12499999997343 0 0  14.19999999997329 0 0  14.27499999997314 0 0  14.349999999973 0 0  14.42499999997285 0 0  14.49999999997271 0 0  14.57499999997257 0 0  14.64999999997242 0 0  14.72499999997228 0 0  14.79999999997213 0 0  14.87499999997199 0 0  14.94999999997185 0 0  15.0249999999717 0 0  15.09999999997156 0 0  15.17499999997142 0 0  15.24999999997127 0 0  15.32499999997113 0 0  15.39999999997098 0 0  15.47499999997084 0 0  15.54999999997069 0 0  15.62499999997055 0 0  15.69999999997041 0 0  15.77499999997026 0 0  15.84999999997012 0 0  15.92499999996997 0 0  15.99999999996983 0 0  16.07499999996969 0 0  16.14999999996954 0 0  16.2249999999694 0 0  16.29999999996926 0 0  16.37499999996911 0 0  16.44999999996897 0 0  16.52499999996882 0 0  16.59999999996868 0 0  16.67499999996853 0 0  16.74999999996839 0 0  16.82499999996825 0 0  16.8999999999681 0 0  16.97499999996796 0 0  17.04999999996781 0 0  17.12499999996767 0 0  17.19999999996763 0 0  17.27499999996763 0 0  17.34999999996764 0 0  17.42499999996764 0 0  17.49999999996764 0 0  17.57499999996794 0 0  17.64999999996824 0 0  17.72499999996854 0 0  17.79999999996884 0 0  17.87499999996919 0 0  17.94999999996964 0 0  18.02499999997008 0 0  18.09999999997053 0 0  18.17499999997098 0 0  18.24999999997143 0 0  18.32499999997188 0 0  18.39999999997232 0 0  18.47499999997277 0 0  18.54999999997322 0 0  18.62499999997367 0 0  18.69999999997412 0 0  18.77499999997456 0 0  18.84999999997501 0 0  18.92499999997546 0 0  18.99999999997591 0 0  19.07499999997636 0 0  19.14999999997681 0 0  19.22499999997725 0 0  19.2999999999777 0 0  19.37499999997815 0 0  19.4499999999786 0 0  19.52499999997904 0 0  19.5999999999795 0 0  19.67499999997995 0 0  19.74999999998039 0 0  19.82499999998084 0 0  19.89999999998129 0 0  19.97499999998174 0 0  20.04999999998218 0 0  20.12499999998263 0 0  20.19999999998308 0 0  20.27499999998353 0 0  20.34999999998398 0 0  20.42499999998443 0 0  20.49999999998487 0 0  20.57499999998532 0 0  20.64999999998576 0 0  20.72499999998622 0 0  20.79999999998667 0 0  20.87499999998711 0 0  20.94999999998756 0 0  21.024999999988 0 0  21.09999999998846 0 0  21.17499999998891 0 0  21.24999999998935 0 0  21.3249999999898 0 0  21.39999999999025 0 0  21.4749999999907 0 0  21.54999999999115 0 0  21.62499999999159 0 0  21.69999999999204 0 0  21.77499999999249 0 0  21.84999999999294 0 0  21.92499999999339 0 0  21.99999999999383 0 0  22.07499999999428 0 0  22.14999999999473 0 0  22.22499999999518 0 0  22.29999999999563 0 0  22.37499999999607 0 0  22.44999999999652 0 0  22.52499999999697 0 0  22.59999999999742 0 0  22.67499999999787 0 0  22.74999999999831 0 0  22.82499999999876 0 0  22.89999999999922 0 0  22.97499999999966 0 0  23.05000000000011 0 0  23.12500000000055 0 0  23.200000000001 0 0  23.27500000000145 0 0  23.3500000000019 0 0  23.42500000000235 0 0  23.5000000000028 0 0  23.57500000000324 0 0  23.65000000000369 0 0  23.72500000000414 0 0  23.80000000000459 0 0  23.87500000000503 0 0  23.95000000000548 0 0  24.02500000000594 0 0  24.10000000000638 0 0  24.17500000000683 0 0  24.25000000000728 0 0  24.32500000000773 0 0  24.40000000000817 0 0  24.47500000000862 0 0  24.55000000000907 0 0  24.62500000000952 0 0  24.70000000000997 0 0  24.77500000001042 0 0  24.85000000001086 0 0  24.92500000001131 0 0  25.00000000001176 0 0  25.07500000001221 0 0  25.15000000001266 0 0  25.2250000000131 0 0  25.30000000001355 0 0  25.37500000001399 0 0  25.45000000001445 0 0  25.5250000000149 0 0  25.60000000001534 0 0  25.67500000001579 0 0  25.75000000001624 0 0  25.82500000001669 0 0  25.90000000001714 0 0  25.97500000001758 0 0  26.05000000001803 0 0  26.12500000001848 0 0  26.2000000000189
[...]
<PointData  Vectors="f_98-0"> 
<DataArray  type="Float64"  Name="f_98-0"  NumberOfComponents="3" format="ascii">-4.9389422022619478e-01 0.0000000000000000e+00 0.0000000000000000e+00  3.7828446314728890e+00 0.0000000000000000e+00 0.0000000000000000e+00  -2.3972569879259708e-05 -2.1306603699969923e-05 0.0000000000000000e+00  0.0000000000000000e+00 0.0000000000000000e+00 0.0000000000000000e+00  0.0000000000000000e+00 0.0000000000000000e+00 0.0000000000000000e+00  -8.8645734608152491e-02 0.0000000000000000e+00 0.0000000000000000e+00  5.0568759839545320e-02 0.0000000000000000e+00 0.0000000000000000e+00  -4.4613934106386175e+01 -3.0137709577904950e+01 0.0000000000000000e+00  1.0823979186439514e+01 -2.1941106916729289e+01 0.0000000000000000e+00  0.0000000000000000e+00 0.0000000000000000e+00 0.0000000000000000e+00  0.0000000000000000e+00 0.0000000000000000e+00 0.0000000000000000e+00  1.2435359105696289e+00 1.0687262614284256e+00 0.0000000000000000e+00  -8.2799260524859601e+00 5.7214341322598505e-01 0.0000000000000000e+00  -1.6620330079771419e+00 -1.3853243986007396e-01 0.0000000000000000e+00  0.0000000000000000e+00 0.0000000000000000e+00 0.0000000000000000e+00  0.0000000000000000e+00 0.0000000000000000e+00 0.0000000000000000e+00  1.0356739435762630e-01 1.5999122993977655e-02 0.0000000000000000e+00  -4.7324815148084387e-01 0.0000000000000000e+00 0.0000000000000000e+00  -4.7057103693415525e-01 0.0000000000000000e+00 0.0000000000000000e+00  -4.7113465911571134e-01 0.0000000000000000e+00 0.0000000000000000e+00  -4.6733542989137777e-01 0.0000000000000000e+00 0.0000000000000000e+00  -4.6727044446749649e-01 0.0000000000000000e+00 0.0000000000000000e+00  -4.6965506675641150e-01 0.0000000000000000e+00 0.0000000000000000e+00  -4.7560940269245539e-01 0.0000000000000000e+00 0.0000000000000000e+00  -4.8595239851847460e-01 0.0000000000000000e+00 0.0000000000000000e+00  -5.0048454885271398e-01 0.0000000000000000e+00 0.0000000000000000e+00  -5.1735713545446982e-01 0.0000000000000000e+00 0.0000000000000000e+00  -5.3462202068920617e-01 0.0000000000000000e+00 0.0000000000000000e+00  -5.5275965417373529e-01 0.0000000000000000e+00 0.0000000000000000e+00  -5.6696005967548524e-01 0.0000000000000000e+00 0.0000000000000000e+00  -5.7829553024399727e-01 0.0000000000000000e+00 0.0000000000000000e+00  -5.8246501699327824e-01 0.0000000000000000e+00 0.0000000000000000e+00  -5.8000793206523493e-01 0.0000000000000000e+00 0.0000000000000000e+00  -5.6518134970081346e-01 0.0000000000000000e+00 0.0000000000000000e+00  -5.3927513626852897e-01 0.0000000000000000e+00 0.0000000000000000e+00  -5.0003449367358710e-01 0.0000000000000000e+00 0.0000000000000000e+00  -4.4608567630384821e-01 0.0000000000000000e+00 0.0000000000000000e+00  -3.7618528366759302e-01 0.0000000000000000e+00 0.0000000000000000e+00  -2.9375992616272611e-01 0.0000000000000000e+00 0.0000000000000000e+00  -1.9307323348063302e-01 0.0000000000000000e+00 0.0000000000000000e+00  -7.9350917463726509e-02 0.0000000000000000e+00 0.0000000000000000e+00  4.5190069475654071e-02 0.0000000000000000e+00 0.0000000000000000e+00  1.8375951449903311e-01 0.0000000000000000e+00 0.0000000000000000e+00  3.3054070117913092e-01 0.0000000000000000e+00 0.0000000000000000e+00  4.8401377983943827e-01 0.0000000000000000e+00 0.0000000000000000e+00  6.4089291765438394e-01 0.0000000000000000e+00 0.0000000000000000e+00  7.9870566797626663e-01 0.0000000000000000e+00 0.0000000000000000e+00  9.5344498513795661e-01 0.0000000000000000e+00 0.0000000000000000e+00  1.1024503190359736e+00 0.0000000000000000e+00 0.0000000000000000e+00  1.2389260207920680e+00 0.0000000000000000e+00 0.0000000000000000e+00  1.3645279243161657e+00 0.0000000000000000e+00 0.0000000000000000e+00  1.4695677670333960e+00 0.0000000000000000e+00 0.0000000000000000e+00  1.5548745817109928e+00 0.0000000000000000e+00 0.0000000000000000e+00  1.6140892969466396e+00 0.0000000000000000e+00 0.0000000000000000e+00  1.6453081296300813e+00 0.0000000000000000e+00 0.0000000000000000e+00  1.6493632387644512e+00 0.0000000000000000e+00 0.0000000000000000e+00  1.6173868686520489e+00 0.0000000000000000e+00 0.0000000000000000e+00  1.5492249246951009e+00 0.0000000000000000e+00 0.0000000000000000e+00  1.4461032043410782e+00 0.0000000000000000e+00 0.0000000000000000e+00  1.3054839512475711e+00 0.0000000000000000e+00 0.0000000000000000e+00  1.1297368886109342e+00 0.0000000000000000e+00 0.0000000000000000e+00  9.1556211277601296e-01 0.0000000000000000e+00 0.0000000000000000e+00  6.6316551512064825e-01 0.0000000000000000e+00 0.0000000000000000e+00  3.8340018131042325e-01 0.0000000000000000e+00 0.0000000000000000e+00  6.4082530135136609e-02 0.0000000000000000e+00 0.0000000000000000e+00  -2.7632378172438377e-01 0.0000000000000000e+00 0.0000000000000000e+00  -6.4549965413465105e-01 0.0000000000000000e+00 0.0000000000000000e+00  -1.0332169341302111e+00 0.0000000000000000e+00 0.0000000000000000e+00  -1.4362670207283905e+00 0.0000000000000000e+00 0.0000000000000000e+00  -1.8478747749247462e+00 0.0000000000000000e+00 0.0000000000000000e+00  -2.2638785614765564e+00 0.0000000000000000e+00 0.0000000000000000e+00  -2.6825310596780088e+00 0.0000000000000000e+00 0.0000000000000000e+00  -3.0890414878012837e+00 0.0000000000000000e+00 0.0000000000000000e+00  -3.4870311823142548e+00 0.0000000000000000e+00 0.0000000000000000e+00  -3.8626999281670611e+00 0.0000000000000000e+00 0.0000000000000000e+00  -4.2185065117582194e+00 0.0000000000000000e+00 0.0000000000000000e+00  -4.5455013538074978e+00 0.0000000000000000e+00 0.0000000000000000e+00  -4.8416729981037507e+00 0.0000000000000000e+00 0.0000000000000000e+00  -5.1027867540355496e+00 0.0000000000000000e+00 0.0000000000000000e+00  -5.3289836094373317e+00 0.0000000000000000e+00 0.0000000000000000e+00  -5.5169118413391658e+00 0.0000000000000000e+00 0.0000000000000000e+00  -5.6670731512796193e+00 0.0000000000000000e+00 0.0000000000000000e+00  -5.7783888175742071e+00 0.0000000000000000e+00 0.0000000000000000e+00  -5.8478574912836621e+00 0.0000000000000000e+00 0.0000000000000000e+00  -5.8775253890605246e+00 0.0000000000000000e+00 0.0000000000000000e+00  -5.8662922707347871e+00 0.0000000000000000e+00 0.0000000000000000e+00  -5.8035176546446978e+00 0.0000000000000000e+00 0.0000000000000000e+00  -5.6925993275477085e+00 0.0000000000000000e+00 0.0000000000000000e+00  -5.5208494872072720e+00 0.0000000000000000e+00 0.0000000000000000e+00  -5.2791796732649363e+00 0.0000000000000000e+00 0.0000000000000000e+00  -4.9610823850080408e+00 0.0000000000000000e+00 0.0000000000000000e+00  -4.5553990798698170e+00 0.0000000000000000e+00 0.0000000000000000e+00  -4.0468397206495590e+00 0.0000000000000000e+00 0.0000000000000000e+00  -3.4240066175285007e+00 0.0000000000000000e+00 0.0000000000000000e+00  -2.6912629968712065e+00 0.0000000000000000e+00 0.0000000000000000e+00  -1.8214059184131204e+00 0.0000000000000000e+00 0.0000000000000000e+00  -8.2111239291965976e-01 0.0000000000000000e+00 0.0000000000000000e+00  3.0423943696226352e-01 0.0000000000000000e+00 0.0000000000000000e+00  1.5624710401921516e+00 0.0000000000000000e+00 0.0000000000000000e+00  2.9653226312515266e+00 0.0000000000000000e+00 0.0000000000000000e+00  4.4481832894470363e+00 0.0000000000000000e+00 0.0000000000000000e+00  6.0719886209046257e+00 0.0000000000000000e+00 0.0000000000000000e+00  7.7344554154098102e+00 0.0000000000000000e+00 0.0000000000000000e+00  9.4950009064083023e+00 0.0000000000000000e+00 0.0000000000000000e+00  1.1263959782869328e+01 0.0000000000000000e+00 0.0000000000000000e+00  1.3041061024588812e+01 0.0000000000000000e+00 0.0000000000000000e+00  1.4787921400452458e+01 0.0000000000000000e+00 0.0000000000000000e+00  1.6456308038234283e+01 0.0000000000000000e+00 0.0000000000000000e+00  1.8014352531846612e+01 0.0000000000000000e+00 0.0000000000000000e+00  1.9428764252410293e+01 0.0000000000000000e+00 0.0000000000000000e+00  2.0635226262277786e+01 0.0000000000000000e+00 0.0000000000000000e+00  2.1626676456154744e+01 0.0000000000000000e+00 0.0000000000000000e+00  2.2328429099261299e+01 0.0000000000000000e+00 0.0000000000000000e+00  2.2716494927913672e+01 0.0000000000000000e+00 0.0000000000000000e+00  2.2789093652593436e+01 0.0000000000000000e+00 0.0000000000000000e+00  2.2445132786904203e+01 0.0000000000000000e+00 0.0000000000000000e+00  2.1765131196092618e+01 0.0000000000000000e+00 0.0000000000000000e+00  2.0599906695376060e+01 0.0000000000000000e+00 0.0000000000000000e+00  1.9048012463126106e+01 0.0000000000000000e+00 0.0000000000000000e+00  1.7072413166833492e+01 0.0000000000000000e+00 0.0000000000000000e+00  1.4628598089412742e+01 0.0000000000000000e+00 0.0000000000000000e+00  1.1796331185859442e+01 0.0000000000000000e+00 0.0000000000000000e+00  8.5897064531784988e+00 0.0000000000000000e+00 0.0000000000000000e+00  4.9855523738712364e+00 0.0000000000000000e+00 0.0000000000000000e+00  1.0850606919794885e+00 0.0000000000000000e+00 0.0000000000000000e+00  -3.0933937320614051e+00 0.0000000000000000e+00 0.0000000000000000e+00  -7.4642597995310940e+00 0.0000000000000000e+00 0.0000000000000000e+00  -1.2035361672892360e+01 0.0000000000000000e+00 0.0000000000000000e+00  -1.6624239625392089e+01 0.0000000000000000e+00 0.0000000000000000e+00  -2.1269571116821083e+01 0.0000000000000000e+00 0.0000000000000000e+00  -2.5799327292776841e+01 0.0000000000000000e+00 0.0000000000000000e+00  -3.0186402931292541e+01 0.0000000000000000e+00 0.0000000000000000e+00  -3.4314758115663338e+01 0.0000000000000000e+00 0.0000000000000000e+00  -3.8125655718196441e+01 0.0000000000000000e+00 0.0000000000000000e+00  -4.1494195230845904e+01 0.0000000000000000e+00 0.0000000000000000e+00  -4.4364847414794674e+01 0.0000000000000000e+00 0.0000000000000000e+00  -4.6679882491846051e+01 0.0000000000000000e+00 0.0000000000000000e+00  -4.8321023623076691e+01 0.0000000000000000e+00 0.0000000000000000e+00  -4.9246081998244506e+01 0.0000000000000000e+00 0.0000000000000000e+00  -4.9449003415957023e+01 0.0000000000000000e+00 0.0000000000000000e+00  -4.8838092948608292e+01 0.0000000000000000e+00 0.0000000000000000e+00  -4.7335980604916450e+01 0.0000000000000000e+00 0.0000000000000000e+00  -4.5101450614984337e+01 0.0000000000000000e+00 0.0000000000000000e+00  -4.1883115549761193e+01 0.0000000000000000e+00 0.0000000000000000e+00  -3.7999456579946887e+01 0.0000000000000000e+00 0.0000000000000000e+00  -3.3152633276394241e+01 0.0000000000000000e+00 0.0000000000000000e+00  -2.7660156840648156e+01 0.0000000000000000e+00 0.0000000000000000e+00  -2.1380026883990869e+01 0.0000000000000000e+00 0.0000000000000000e+00  -1.4500907507555873e+01 0.0000000000000000e+00 0.0000000000000000e+00  -7.1051888876710736e+00 0.0000000000000000e+00 0.0000000000000000e+00  7.5104123729187222e-01 0.0000000000000000e+00 0.0000000000000000e+00  8.9172965097313508e+00 0.0000000000000000e+00 0.0000000000000000e+00  1.7233033841737985e+01 0.0000000000000000e+00 0.0000000000000000e+00  2.5703878749630796e+01 0.0000000000000000e+00 0.0000000000000000e+00  3.4053149130521398e+01 0.0000000000000000e+00 0.0000000000000000e+00  4.2217209273227894e+01 0.0000000000000000e+00 0.0000000000000000e+00  4.9995267348572668e+01 0.0000000000000000e+00 0.0000000000000000e+00  5.7345454717867071e+01 0.0000000000000000e+00 0.0000000000000000e+00  6.3982127462693100e+01 0.0000000000000000e+00 0.0000000000000000e+00  6.9940002534716328e+01 0.0000000000000000e+00 0.0000000000000000e+00  7.4881714959265935e+01 0.0000000000000000e+00 0.0000000000000000e+00  7.8902341876049107e+01 0.0000000000000000e+00 0.0000000000000000e+00  8.1871770440194553e+01 0.0000000000000000e+00 0.0000000000000000e+00  8.3577111200098130e+01 0.0000000000000000e+00 0.0000000000000000e+00  8.4090749900501109e+01 0.0000000000000000e+00 0.0000000000000000e+00  8.3303398816501442e+01 0.0000000000000000e+00 0.0000000000000000e+00  8.0868414507611902e+01 0.0000000000000000e+00 0.0000000000000000e+00  7.7535384477607664e+01 0.0000000000000000e+00 0.0000000000000000e+00  7.2758539329649167e+01 0.0000000000000000e+00 0.0000000000000000e+00  6.6576595911891062e+01 0.0000000000000000e+00 0.0000000000000000e+00  5.9189584755001007e+01 0.0000000000000000e+00 0.0000000000000000e+00  5.0601541161228944e+01 0.0000000000000000e+00 0.0000000000000000e+00  4.1109755226352029e+01 0.0000000000000000e+00 0.0000000000000000e+00  3.0659915045344697e+01 0.0000000000000000e+00 0.0000000000000000e+00  1.9325406486023194e+01 0.0000000000000000e+00 0.0000000000000000e+00  7.4647578371263954e+00 0.0000000000000000e+00 0.0000000000000000e+00  -4.9109670186558168e+00 0.0000000000000000e+00 0.0000000000000000e+00  -1.7521401471009284e+01 0.0000000000000000e+00 0.0000000000000000e+00  -3.0239068339595679e+01 0.0000000000000000e+00 0.0000000000000000e+00  -4.2838222272414839e+01 0.0000000000000000e+00 0.0000000000000000e+00  -5.5084913717183831e+01 0.0000000000000000e+00 0.0000000000000000e+00  -6.6815322686613982e+01 0.0000000000000000e+00 0.0000000000000000e+00  -7.7842876184978337e+01 0.0000000000000000e+00 0.0000000000000000e+00  -8.8080601859698476e+01 0.0000000000000000e+00 0.0000000000000000e+00  -9.7047750639467139e+01 0.0000000000000000e+00 0.0000000000000000e+00  -1.0488405285490303e+02 0.0000000000000000e+00 0.0000000000000000e+00  -1.1120798104623532e+02 0.0000000000000000e+00 0.0000000000000000e+00  -1.1608859304471459e+02 0.0000000000000000e+00 0.0000000000000000e+00  -1.1923469765352355e+02 0.0000000000000000e+00 0.0000000000000000e+00  -1.2079974332549058e+02 0.0000000000000000e+00 0.0000000000000000e+00  -1.2044899796804137e+02 0.0000000000000000e+00 0.0000000000000000e+00  -1.1835968387297267e+02 0.0000000000000000e+00 0.0000000000000000e+00  -1.1435845356788246e+02 0.0000000000000000e+00 0.0000000000000000e+00  -1.0860677059740816e+02 0.0000000000000000e+00 0.0000000000000000e+00  -1.0117189726927357e+02 0.0000000000000000e+00 0.0000000000000000e+00  -9.1959705767265604e+01 0.0000000000000000e+00 0.0000000000000000e+00  -8.1271218450828798e+01 0.0000000000000000e+00 0.0000000000000000e+00  -6.9083734396731813e+01 0.0000000000000000e+00 0.0000000000000000e+00  -5.5685604496628379e+01 0.0000000000000000e+00 0.0000000000000000e+00  -4.1229002352697940e+01 0.0000000000000000e+00 0.0000000000000000e+00  -2.5833369348801721e+01 0.0000000000000000e+00 0.0000000000000000e+00  -9.8377650589810770e+00 0.0000000000000000e+00 0.0000000000000000e+00  6.6092813579342993e+00 0.0000000000000000e+00 0.0000000000000000e+00  2.3261242701345452e+01 0.0000000000000000e+00 0.0000000000000000e+00  3.9839142869560888e+01 0.0000000000000000e+00 0.0000000000000000e+00  5.6101425610113949e+01 0.0000000000000000e+00 0.0000000000000000e+00  7.1774665404616030e+01 0.0000000000000000e+00 0.0000000000000000e+00  8.6718206617688523e+01 0.0000000000000000e+00 0.0000000000000000e+00  1.0048982328194093e+02 0.0000000000000000e+00 0.0000000000000000e+00  1.1323510208641103e+02 0.0000000000000000e+00 0.0000000000000000e+00  1.2423856206142730e+02 0.0000000000000000e+00 0.0000000000000000e+00  1.3384931899683951e+02 0.0000000000000000e+00 0.0000000000000000e+00  1.4128695176559600e+02 0.0000000000000000e+00 0.0000000000000000e+00  1.4710553578170155e+02 0.0000000000000000e+00 0.0000000000000000e+00  1.5064987222055132e+02 0.0000000000000000e+00 0.0000000000000000e+00  1.5236596271109210e+02 0.0000000000000000e+00 0.0000000000000000e+00  1.5137677512900694e+02 0.0000000000000000e+00 0.0000000000000000e+00  1.4879069874035883e+02 0.0000000000000000e+00 0.0000000000000000e+00  1.4337346984907148e+02 0.0000000000000000e+00 0.0000000000000000e+00  1.3637042979146722e+02 0.0000000000000000e+00 0.0000000000000000e+00  1.2706590592812339e+02 0.0000000000000000e+00 0.0000000000000000e+00  1.1590399137055235e+02 0.0000000000000000e+00 0.0000000000000000e+00  1.0281275766810280e+02 0.0000000000000000e+00 0.0000000000000000e+00  8.8288642669309525e+01 0.0000000000000000e+00 0.0000000000000000e+00  7.2205481423458792e+01 0.0000000000000000e+00 0.0000000000000000e+00  5.5071541449884734e+01 0.0000000000000000e+00 0.0000000000000000e+00  3.6901469135991022e+01 0.0000000000000000e+00 0.0000000000000000e+00  1.8054489981794433e+01 0.0000000000000000e+00 0.0000000000000000e+00  -1.2267246964242240e+00 0.0000000000000000e+00 0.0000000000000000e+00  -2.0614889617046757e+01 0.0000000000000000e+00 0.0000000000000000e+00  -3.9942149307256400e+01 0.0000000000000000e+00 0.0000000000000000e+00  -5.8739830281328402e+01 0.0000000000000000e+00 0.0000000000000000e+00  -7.6988891021161308e+01 0.0000000000000000e+00 0.0000000000000000e+00  -9.4102106006146400e+01 0.0000000000000000e+00 0.0000000000000000e+00  -1.1017552855957263e+02 0.0000000000000000e+00 0.0000000000000000e+00  -1.2481441594021877e+02 0.0000000000000000e+00 0.0000000000000000e+00  -1.3755033721648374e+02 0.0000000000000000e+00 0.0000000000000000e+00  -1.4866097851050466e+02 0.0000000000000000e+00 0.0000000000000000e+00  -1.5757643894076472e+02 0.0000000000000000e+00 0.0000000000000000e+00  -1.6449114723942262e+02 0.0000000000000000e+00 0.0000000000000000e+00  -1.6888807266511060e+02 0.0000000000000000e+00 0.0000000000000000e+00  -1.7117561464133470e+02 0.0000000000000000e+00 0.0000000000000000e+00  -1.7093361742297526e+02 0.0000000000000000e+00 0.0000000000000000e+00  -1.6837155771982219e+02 0.0000000000000000e+00 0.0000000000000000e+00  -1.6331883866471810e+02 0.0000000000000000e+00 0.0000000000000000e+00  -1.5613203950066250e+02 0.0000000000000000e+00 0.0000000000000000e+00  -1.4672469591126645e+02 0.0000000000000000e+00 0.0000000000000000e+00  -1.3508519695307868e+02 0.0000000000000000e+00 0.0000000000000000e+00  -1.2164252758933854e+02 0.0000000000000000e+00 0.0000000000000000e+00  -1.0643075192517978e+02 0.0000000000000000e+00 0.0000000000000000e+00  -8.9734846536087005e+01 0.0000000000000000e+00 0.0000000000000000e+00  -7.1706612885254174e+01 0.0000000000000000e+00 0.0000000000000000e+00  -5.2675492257603068e+01 0.0000000000000000e+00 0.0000000000000000e+00  -3.2932787006784821e+01 0.0000000000000000e+00 0.0000000000000000e+00  -1.2601597978923824e+01 0.0000000000000000e+00 0.0000000000000000e+00  7.8081693015695812e+00 0.0000000000000000e+00 0.0000000000000000e+00  2.8230315127977537e+01 0.0000000000000000e+00 0.0000000000000000e+00  4.8292468424880347e+01 0.0000000000000000e+00 0.0000000000000000e+00  6.7544880151400335e+01 0.0000000000000000e+00 0.0000000000000000e+00  8.6046830178527969e+01 0.0000000000000000e+00 0.0000000000000000e+00  1.0322396892348621e+02 0.0000000000000000e+00 0.0000000000000000e+00  1.1912350178459018e+02 0.0000000000000000e+00 0.0000000000000000e+00  1.3317322805905118e+02 0.0000000000000000e+00 0.0000000000000000e+00  1.4560172327477403e+02 0.0000000000000000e+00 0.0000000000000000e+00  1.5586421148566751e+02 0.0000000000000000e+00 0.0000000000000000e+00  1.6411632693663287e+02 0.0000000000000000e+00 0.0000000000000000e+00  1.6992733816676144e+02 0.0000000000000000e+00 0.0000000000000000e+00  1.7361184562517724e+02 0.0000000000000000e+00 0.0000000000000000e+00  1.7493578063100449e+02 0.0000000000000000e+00 0.0000000000000000e+00  1.7362070708587282e+02 0.0000000000000000e+00 0.0000000000000000e+00  1.7018300508208063e+02 0.0000000000000000e+00 0.0000000000000000e+00  1.6428378011021209e+02 0.0000000000000000e+00 0.0000000000000000e+00  1.5633717739963939e+02 0.0000000000000000e+00 0.0000000000000000e+00  1.4608616265056446e+02 0.0000000000000000e+00 0.0000000000000000e+00  1.3411052001823083e+02 0.0000000000000000e+00 0.0000000000000000e+00  1.2016014042378687e+02 0.0000000000000000e+00 0.0000000000000000e+00  1.0480537201994612e+02 0.0000000000000000e+00 0.0000000000000000e+00  8.7979307539024333e+01 0.0000000000000000e+00 0.0000000000000000e+00  7.0130647725496416e+01 0.0000000000000000e+00 0.0000000000000000e+00  5.1345905165049444e+01 0.0000000000000000e+00 0.0000000000000000e+00  3.2024001103050047e+01 0.0000000000000000e+00 0.0000000000000000e+00  1.2296764388273640e+01 0.0000000000000000e+00 0.0000000000000000e+00  -7.4