<?xml version="1.0"?>
<VTKFile type="UnstructuredGrid"  version="0.1"  >
<UnstructuredGrid>
<Piece  NumberOfPoints="25032" NumberOfCells="49121">
<Points>
<DataArray  type="Float64"  NumberOfComponents="3"  format="ascii">-5 0 0  40 0 0  40 10 0  0 10 0  0 1 0  -5 1 0  -5 0.75 0  5 0.75 0  5 1.25 0  0 1.25 0  0 1.075 0  1 1.075 0  1 0.925 0  -2 0.925 0  -2 1 0  0 1.5 0  40 1.5 0  -4.924999999999996 0 0  -4.849999999999993 0 0  -4.774999999999989 0 0  -4.699999999999985 0 0  -4.624999999999981 0 0  -4.549999999999978 0 0  -4.474999999999974 0 0  -4.39999999999997 0 0  -4.324999999999966 0 0  -4.249999999999963 0 0  -4.174999999999959 0 0  -4.099999999999955 0 0  -4.024999999999951 0 0  -3.949999999999947 0 0  -3.874999999999943 0 0  -3.79999999999994 0 0  -3.724999999999936 0 0  -3.649999999999932 0 0  -3.574999999999929 0 0  -3.499999999999925 0 0  -3.424999999999921 0 0  -3.349999999999917 0 0  -3.274999999999913 0 0  -3.19999999999993 0 0  -3.124999999999964 0 0  -3.049999999999997 0 0  -2.97500000000003 0 0  -2.900000000000063 0 0  -2.825000000000129 0 0  -2.750000000000199 0 0  -2.675000000000269 0 0  -2.600000000000339 0 0  -2.525000000000407 0 0  -2.450000000000458 0 0  -2.37500000000051 0 0  -2.300000000000562 0 0  -2.225000000000613 0 0  -2.150000000000647 0 0  -2.075000000000662 0 0  -2.000000000000676 0 0  -1.925000000000691 0 0  -1.850000000000705 0 0  -1.775000000000705 0 0  -1.700000000000702 0 0  -1.625000000000698 0 0  -1.550000000000694 0 0  -1.47500000000069 0 0  -1.400000000000686 0 0  -1.325000000000682 0 0  -1.250000000000679 0 0  -1.175000000000675 0 0  -1.100000000000671 0 0  -1.025000000000667 0 0  -0.9500000000006636 0 0  -0.875000000000659 0 0  -0.8000000000006553 0 0  -0.7250000000006516 0 0  -0.6500000000006478 0 0  -0.5750000000006441 0 0  -0.5000000000006395 0 0  -0.4250000000006366 0 0  -0.3500000000006329 0 0  -0.2750000000006292 0 0  -0.2000000000006246 0 0  -0.1250000000006208 0 0  -0.05000000000061799 0 0  0.02499999999938662 0 0  0.09999999999939035 0 0  0.1749999999993941 0 0  0.2499999999993978 0 0  0.3249999999993758 0 0  0.3999999999993431 0 0  0.4749999999993095 0 0  0.5499999999992768 0 0  0.6249999999992433 0 0  0.6999999999991351 0 0  0.7749999999990296 0 0  0.8499999999989214 0 0  0.9249999999988141 0 0  0.9999999999986944 0 0  1.074999999998552 0 0  1.149999999998407 0 0  1.224999999998261 0 0  1.299999999998119 0 0  1.374999999997974 0 0  1.44999999999783 0 0  1.524999999997685 0 0  1.599999999997541 0 0  1.674999999997397 0 0  1.749999999997253 0 0  1.824999999997109 0 0  1.899999999996965 0 0  1.974999999996821 0 0  2.049999999996677 0 0  2.124999999996531 0 0  2.199999999996388 0 0  2.274999999996243 0 0  2.349999999996101 0 0  2.424999999995955 0 0  2.49999999999581 0 0  2.574999999995668 0 0  2.649999999995523 0 0  2.724999999995378 0 0  2.799999999995234 0 0  2.874999999995089 0 0  2.949999999994946 0 0  3.024999999994801 0 0  3.099999999994658 0 0  3.174999999994514 0 0  3.249999999994371 0 0  3.324999999994224 0 0  3.39999999999408 0 0  3.474999999993937 0 0  3.549999999993792 0 0  3.624999999993648 0 0  3.699999999993503 0 0  3.774999999993359 0 0  3.849999999993216 0 0  3.924999999993071 0 0  3.999999999992927 0 0  4.074999999992784 0 0  4.149999999992639 0 0  4.224999999992495 0 0  4.29999999999235 0 0  4.374999999992207 0 0  4.449999999992063 0 0  4.524999999991918 0 0  4.599999999991773 0 0  4.674999999991629 0 0  4.749999999991484 0 0  4.82499999999134 0 0  4.899999999991195 0 0  4.974999999991052 0 0  5.049999999990908 0 0  5.124999999990763 0 0  5.199999999990617 0 0  5.274999999990472 0 0  5.349999999990329 0 0  5.424999999990185 0 0  5.49999999999004 0 0  5.574999999989895 0 0  5.649999999989751 0 0  5.724999999989608 0 0  5.799999999989463 0 0  5.874999999989317 0 0  5.949999999989172 0 0  6.024999999989028 0 0  6.099999999988885 0 0  6.17499999998874 0 0  6.249999999988596 0 0  6.324999999988451 0 0  6.399999999988305 0 0  6.474999999988162 0 0  6.549999999988019 0 0  6.624999999987873 0 0  6.699999999987728 0 0  6.774999999987587 0 0  6.849999999987441 0 0  6.924999999987296 0 0  6.999999999987153 0 0  7.074999999987007 0 0  7.149999999986864 0 0  7.224999999986718 0 0  7.299999999986575 0 0  7.374999999986429 0 0  7.449999999986284 0 0  7.524999999986141 0 0  7.599999999985997 0 0  7.674999999985852 0 0  7.749999999985706 0 0  7.824999999985563 0 0  7.89999999998542 0 0  7.974999999985274 0 0  8.049999999985129 0 0  8.124999999984986 0 0  8.19999999998484 0 0  8.274999999984697 0 0  8.349999999984554 0 0  8.424999999984408 0 0  8.499999999984261 0 0  8.574999999984119 0 0  8.649999999983976 0 0  8.724999999983829 0 0  8.799999999983685 0 0  8.874999999983542 0 0  8.949999999983397 0 0  9.024999999983253 0 0  9.099999999983106 0 0  9.174999999982964 0 0  9.249999999982817 0 0  9.324999999982674 0 0  9.399999999982532 0 0  9.474999999982385 0 0  9.549999999982241 0 0  9.624999999982094 0 0  9.699999999981955 0 0  9.774999999981809 0 0  9.849999999981662 0 0  9.924999999981519 0 0  9.999999999981375 0 0  10.07499999998123 0 0  10.14999999998109 0 0  10.22499999998094 0 0  10.2999999999808 0 0  10.37499999998065 0 0  10.44999999998051 0 0  10.52499999998036 0 0  10.59999999998022 0 0  10.67499999998007 0 0  10.74999999997993 0 0  10.82499999997979 0 0  10.89999999997964 0 0  10.9749999999795 0 0  11.04999999997935 0 0  11.12499999997921 0 0  11.19999999997906 0 0  11.27499999997892 0 0  11.34999999997877 0 0  11.42499999997863 0 0  11.49999999997848 0 0  11.57499999997834 0 0  11.6499999999782 0 0  11.72499999997805 0 0  11.79999999997791 0 0  11.87499999997776 0 0  11.94999999997762 0 0  12.02499999997748 0 0  12.09999999997733 0 0  12.17499999997719 0 0  12.24999999997704 0 0  12.3249999999769 0 0  12.39999999997675 0 0  12.47499999997661 0 0  12.54999999997646 0 0  12.62499999997632 0 0  12.69999999997617 0 0  12.77499999997603 0 0  12.84999999997589 0 0  12.92499999997574 0 0  12.9999999999756 0 0  13.07499999997545 0 0  13.14999999997531 0 0  13.22499999997516 0 0  13.29999999997502 0 0  13.37499999997488 0 0  13.44999999997473 0 0  13.52499999997459 0 0  13.59999999997444 0 0  13.6749999999743 0 0  13.74999999997415 0 0  13.82499999997401 0 0  13.89999999997386 0 0  13.97499999997372 0 0  14.04999999997358 0 0  14.12499999997343 0 0  14.19999999997329 0 0  14.27499999997314 0 0  14.349999999973 0 0  14.42499999997285 0 0  14.49999999997271 0 0  14.57499999997257 0 0  14.64999999997242 0 0  14.72499999997228 0 0  14.79999999997213 0 0  14.87499999997199 0 0  14.94999999997185 0 0  15.0249999999717 0 0  15.09999999997156 0 0  15.17499999997142 0 0  15.24999999997127 0 0  15.32499999997113 0 0  15.39999999997098 0 0  15.47499999997084 0 0  15.54999999997069 0 0  15.62499999997055 0 0  15.69999999997041 0 0  15.77499999997026 0 0  15.84999999997012 0 0  15.92499999996997 0 0  15.99999999996983 0 0  16.07499999996969 0 0  16.14999999996954 0 0  16.2249999999694 0 0  16.29999999996926 0 0  16.37499999996911 0 0  16.44999999996897 0 0  16.52499999996882 0 0  16.59999999996868 0 0  16.67499999996853 0 0  16.74999999996839 0 0  16.82499999996825 0 0  16.8999999999681 0 0  16.97499999996796 0 0  17.04999999996781 0 0  17.12499999996767 0 0  17.19999999996763 0 0  17.27499999996763 0 0  17.34999999996764 0 0  17.42499999996764 0 0  17.49999999996764 0 0  17.57499999996794 0 0  17.64999999996824 0 0  17.72499999996854 0 0  17.79999999996884 0 0  17.87499999996919 0 0  17.94999999996964 0 0  18.02499999997008 0 0  18.09999999997053 0 0  18.17499999997098 0 0  18.24999999997143 0 0  18.32499999997188 0 0  18.39999999997232 0 0  18.47499999997277 0 0  18.54999999997322 0 0  18.62499999997367 0 0  18.69999999997412 0 0  18.77499999997456 0 0  18.84999999997501 0 0  18.92499999997546 0 0  18.99999999997591 0 0  19.07499999997636 0 0  19.14999999997681 0 0  19.22499999997725 0 0  19.2999999999777 0 0  19.37499999997815 0 0  19.4499999999786 0 0  19.52499999997904 0 0  19.5999999999795 0 0  19.67499999997995 0 0  19.74999999998039 0 0  19.82499999998084 0 0  19.89999999998129 0 0  19.97499999998174 0 0  20.04999999998218 0 0  20.12499999998263 0 0  20.19999999998308 0 0  20.27499999998353 0 0  20.34999999998398 0 0  20.42499999998443 0 0  20.49999999998487 0 0  20.57499999998532 0 0  20.64999999998576 0 0  20.72499999998622 0 0  20.79999999998667 0 0  20.87499999998711 0 0  20.94999999998756 0 0  21.024999999988 0 0  21.09999999998846 0 0  21.17499999998891 0 0  21.24999999998935 0 0  21.3249999999898 0 0  21.39999999999025 0 0  21.4749999999907 0 0  21.54999999999115 0 0  21.62499999999159 0 0  21.69999999999204 0 0  21.77499999999249 0 0  21.84999999999294 0 0  21.92499999999339 0 0  21.99999999999383 0 0  22.07499999999428 0 0  22.14999999999473 0 0  22.22499999999518 0 0  22.29999999999563 0 0  22.37499999999607 0 0  22.44999999999652 0 0  22.52499999999697 0 0  22.59999999999742 0 0  22.67499999999787 0 0  22.74999999999831 0 0  22.82499999999876 0 0  22.89999999999922 0 0  22.97499999999966 0 0  23.05000000000011 0 0  23.12500000000055 0 0  23.200000000001 0 0  23.27500000000145 0 0  23.3500000000019 0 0  23.42500000000235 0 0  23.5000000000028 0 0  23.57500000000324 0 0  23.65000000000369 0 0  23.72500000000414 0 0  23.80000000000459 0 0  23.87500000000503 0 0  23.95000000000548 0 0  24.02500000000594 0 0  24.10000000000638 0 0  24.17500000000683 0 0  24.25000000000728 0 0  24.32500000000773 0 0  24.40000000000817 0 0  24.47500000000862 0 0  24.55000000000907 0 0  24.62500000000952 0 0  24.70000000000997 0 0  24.77500000001042 0 0  24.85000000001086 0 0  24.92500000001131 0 0  25.00000000001176 0 0  25.07500000001221 0 0  25.15000000001266 0 0  25.2250000000131 0 0  25.30000000001355 0 0  25.37500000001399 0 0  25.45000000001445 0 0  25.5250000000149 0 0  25.60000000001534 0 0  25.67500000001579 0 0  25.75000000001624 0 0  25.82500000001669 0 0  25.90000000001714 0 0  25.97500000001758 0 0  26.05000000001803 0 0  26.12500000001848 0 0  26.2000000000189
[...]
<PointData  Vectors="f_304-0"> 
<DataArray  type="Float64"  Name="f_304-0"  NumberOfComponents="3" format="ascii">-1.7943013534763145e-07 0.0000000000000000e+00 0.0000000000000000e+00  4.3198288235020369e-03 0.0000000000000000e+00 0.0000000000000000e+00  1.1680723259642117e-05 8.6809694108637248e-06 -1.2105829829232419e-10  0.0000000000000000e+00 0.0000000000000000e+00 0.0000000000000000e+00  0.0000000000000000e+00 0.0000000000000000e+00 0.0000000000000000e+00  -1.3808412014430622e-07 0.0000000000000000e+00 3.5416265074630928e-09  -1.8460567474182003e-07 0.0000000000000000e+00 8.8258695603228349e-10  -1.1041340710693679e-05 1.7094179117882878e-06 -1.3990382627951035e-07  1.4815194052803356e-06 1.8975111685577306e-06 -9.7078860677149161e-08  0.0000000000000000e+00 0.0000000000000000e+00 0.0000000000000000e+00  0.0000000000000000e+00 0.0000000000000000e+00 0.0000000000000000e+00  -1.5203934423214381e-09 -2.5269265994750628e-07 1.3013991320091124e-09  -9.2990409688944877e-08 -2.4570466318295203e-07 -2.3175563018660895e-08  -2.4329223792866868e-07 -2.6287148101504017e-10 -1.9294655937247694e-09  0.0000000000000000e+00 0.0000000000000000e+00 0.0000000000000000e+00  0.0000000000000000e+00 0.0000000000000000e+00 0.0000000000000000e+00  -6.8126458258027586e-02 3.5039123962709834e-02 4.2250995318689069e-04  -1.8664522181730738e-07 0.0000000000000000e+00 0.0000000000000000e+00  -2.0847987297281706e-07 0.0000000000000000e+00 0.0000000000000000e+00  -2.1726538314851698e-07 0.0000000000000000e+00 0.0000000000000000e+00  -2.2719769820289728e-07 0.0000000000000000e+00 0.0000000000000000e+00  -2.3321930702406653e-07 0.0000000000000000e+00 0.0000000000000000e+00  -2.3952062932929006e-07 0.0000000000000000e+00 0.0000000000000000e+00  -2.4230838218928255e-07 0.0000000000000000e+00 0.0000000000000000e+00  -2.4604477364585939e-07 0.0000000000000000e+00 0.0000000000000000e+00  -2.4811204521001935e-07 0.0000000000000000e+00 0.0000000000000000e+00  -2.4938978987516647e-07 0.0000000000000000e+00 0.0000000000000000e+00  -2.4971188775149572e-07 0.0000000000000000e+00 0.0000000000000000e+00  -2.4978188499615337e-07 0.0000000000000000e+00 0.0000000000000000e+00  -2.4793537022487515e-07 0.0000000000000000e+00 0.0000000000000000e+00  -2.4680367681957283e-07 0.0000000000000000e+00 0.0000000000000000e+00  -2.4533762913014007e-07 0.0000000000000000e+00 0.0000000000000000e+00  -2.4457277042686333e-07 0.0000000000000000e+00 0.0000000000000000e+00  -2.4416058919972132e-07 0.0000000000000000e+00 0.0000000000000000e+00  -2.4183799556492172e-07 0.0000000000000000e+00 0.0000000000000000e+00  -2.3965812532641044e-07 0.0000000000000000e+00 0.0000000000000000e+00  -2.3850115607870295e-07 0.0000000000000000e+00 0.0000000000000000e+00  -2.3706506812586361e-07 0.0000000000000000e+00 0.0000000000000000e+00  -2.3404332090461946e-07 0.0000000000000000e+00 0.0000000000000000e+00  -2.3257792227159438e-07 0.0000000000000000e+00 0.0000000000000000e+00  -2.3069152725856056e-07 0.0000000000000000e+00 0.0000000000000000e+00  -2.2919410304836130e-07 0.0000000000000000e+00 0.0000000000000000e+00  -2.2764447714583150e-07 0.0000000000000000e+00 0.0000000000000000e+00  -2.2500578332125758e-07 0.0000000000000000e+00 0.0000000000000000e+00  -2.2300890150981044e-07 0.0000000000000000e+00 0.0000000000000000e+00  -2.2075252973753285e-07 0.0000000000000000e+00 0.0000000000000000e+00  -2.1893203630223680e-07 0.0000000000000000e+00 0.0000000000000000e+00  -2.1690658440896026e-07 0.0000000000000000e+00 0.0000000000000000e+00  -2.1439804888816476e-07 0.0000000000000000e+00 0.0000000000000000e+00  -2.1185451956018240e-07 0.0000000000000000e+00 0.0000000000000000e+00  -2.0942592852462062e-07 0.0000000000000000e+00 0.0000000000000000e+00  -2.0672918911004776e-07 0.0000000000000000e+00 0.0000000000000000e+00  -2.0376558377856497e-07 0.0000000000000000e+00 0.0000000000000000e+00  -2.0094434557090069e-07 0.0000000000000000e+00 0.0000000000000000e+00  -1.9775322823133901e-07 0.0000000000000000e+00 0.0000000000000000e+00  -1.9457022769311357e-07 0.0000000000000000e+00 0.0000000000000000e+00  -1.9102623884368115e-07 0.0000000000000000e+00 0.0000000000000000e+00  -1.8767090093488251e-07 0.0000000000000000e+00 0.0000000000000000e+00  -1.8404962974026194e-07 0.0000000000000000e+00 0.0000000000000000e+00  -1.8032401451823651e-07 0.0000000000000000e+00 0.0000000000000000e+00  -1.7643103068527883e-07 0.0000000000000000e+00 0.0000000000000000e+00  -1.7234491194049752e-07 0.0000000000000000e+00 0.0000000000000000e+00  -1.6843160049113232e-07 0.0000000000000000e+00 0.0000000000000000e+00  -1.6455310570215097e-07 0.0000000000000000e+00 0.0000000000000000e+00  -1.6028339209286141e-07 0.0000000000000000e+00 0.0000000000000000e+00  -1.5618001741473086e-07 0.0000000000000000e+00 0.0000000000000000e+00  -1.5252300351062360e-07 0.0000000000000000e+00 0.0000000000000000e+00  -1.4848639488931987e-07 0.0000000000000000e+00 0.0000000000000000e+00  -1.4449357199997425e-07 0.0000000000000000e+00 0.0000000000000000e+00  -1.4048099499042274e-07 0.0000000000000000e+00 0.0000000000000000e+00  -1.3655410871311716e-07 0.0000000000000000e+00 0.0000000000000000e+00  -1.3313807622546622e-07 0.0000000000000000e+00 0.0000000000000000e+00  -1.2949370079325494e-07 0.0000000000000000e+00 0.0000000000000000e+00  -1.2590863215307247e-07 0.0000000000000000e+00 0.0000000000000000e+00  -1.2213240763296521e-07 0.0000000000000000e+00 0.0000000000000000e+00  -1.1812746294553101e-07 0.0000000000000000e+00 0.0000000000000000e+00  -1.1429535017777063e-07 0.0000000000000000e+00 0.0000000000000000e+00  -1.1020953454923952e-07 0.0000000000000000e+00 0.0000000000000000e+00  -1.0524641898007996e-07 0.0000000000000000e+00 0.0000000000000000e+00  -9.9820159261262956e-08 0.0000000000000000e+00 0.0000000000000000e+00  -9.4112076088810492e-08 0.0000000000000000e+00 0.0000000000000000e+00  -8.6759934220821042e-08 0.0000000000000000e+00 0.0000000000000000e+00  -7.8286196284938059e-08 0.0000000000000000e+00 0.0000000000000000e+00  -6.8376131294233744e-08 0.0000000000000000e+00 0.0000000000000000e+00  -5.6825808652597673e-08 0.0000000000000000e+00 0.0000000000000000e+00  -4.3191755812082838e-08 0.0000000000000000e+00 0.0000000000000000e+00  -2.7978211366263057e-08 0.0000000000000000e+00 0.0000000000000000e+00  -9.8617834612430890e-09 0.0000000000000000e+00 0.0000000000000000e+00  9.8285077029723942e-09 0.0000000000000000e+00 0.0000000000000000e+00  3.2762358682901481e-08 0.0000000000000000e+00 0.0000000000000000e+00  5.7588323559740937e-08 0.0000000000000000e+00 0.0000000000000000e+00  8.4607688830800281e-08 0.0000000000000000e+00 0.0000000000000000e+00  1.1467816082017500e-07 0.0000000000000000e+00 0.0000000000000000e+00  1.4641457141408792e-07 0.0000000000000000e+00 0.0000000000000000e+00  1.8029780950440498e-07 0.0000000000000000e+00 0.0000000000000000e+00  2.1637251937203464e-07 0.0000000000000000e+00 0.0000000000000000e+00  2.5391418955561463e-07 0.0000000000000000e+00 0.0000000000000000e+00  2.9289526805133557e-07 0.0000000000000000e+00 0.0000000000000000e+00  3.3278236434994334e-07 0.0000000000000000e+00 0.0000000000000000e+00  3.7413529019585355e-07 0.0000000000000000e+00 0.0000000000000000e+00  4.1503766933449744e-07 0.0000000000000000e+00 0.0000000000000000e+00  4.5663362729280320e-07 0.0000000000000000e+00 0.0000000000000000e+00  4.9685576328568230e-07 0.0000000000000000e+00 0.0000000000000000e+00  5.3657384837037636e-07 0.0000000000000000e+00 0.0000000000000000e+00  5.7427412846156817e-07 0.0000000000000000e+00 0.0000000000000000e+00  6.0964252566119566e-07 0.0000000000000000e+00 0.0000000000000000e+00  6.4177185667625863e-07 0.0000000000000000e+00 0.0000000000000000e+00  6.6975159187065201e-07 0.0000000000000000e+00 0.0000000000000000e+00  6.9301502292520492e-07 0.0000000000000000e+00 0.0000000000000000e+00  7.1032078810292162e-07 0.0000000000000000e+00 0.0000000000000000e+00  7.2036276171508516e-07 0.0000000000000000e+00 0.0000000000000000e+00  7.2267196953430345e-07 0.0000000000000000e+00 0.0000000000000000e+00  7.1539609205959202e-07 0.0000000000000000e+00 0.0000000000000000e+00  6.9755556917072751e-07 0.0000000000000000e+00 0.0000000000000000e+00  6.6859193054229981e-07 0.0000000000000000e+00 0.0000000000000000e+00  6.2532397941675749e-07 0.0000000000000000e+00 0.0000000000000000e+00  5.6927266166116250e-07 0.0000000000000000e+00 0.0000000000000000e+00  4.9499307716819026e-07 0.0000000000000000e+00 0.0000000000000000e+00  4.0481982928692120e-07 0.0000000000000000e+00 0.0000000000000000e+00  2.9630548779942331e-07 0.0000000000000000e+00 0.0000000000000000e+00  1.6599820200053090e-07 0.0000000000000000e+00 0.0000000000000000e+00  1.4645689113656167e-08 0.0000000000000000e+00 0.0000000000000000e+00  -1.5800126848144670e-07 0.0000000000000000e+00 0.0000000000000000e+00  -3.5661602755655916e-07 0.0000000000000000e+00 0.0000000000000000e+00  -5.7934327047903551e-07 0.0000000000000000e+00 0.0000000000000000e+00  -8.2709108325031056e-07 0.0000000000000000e+00 0.0000000000000000e+00  -1.1008895456540835e-06 0.0000000000000000e+00 0.0000000000000000e+00  -1.4050822314847130e-06 0.0000000000000000e+00 0.0000000000000000e+00  -1.7297974856109170e-06 0.0000000000000000e+00 0.0000000000000000e+00  -2.0880942375402610e-06 0.0000000000000000e+00 0.0000000000000000e+00  -2.4640830679508351e-06 0.0000000000000000e+00 0.0000000000000000e+00  -2.8735110318467314e-06 0.0000000000000000e+00 0.0000000000000000e+00  -3.3016083810643704e-06 0.0000000000000000e+00 0.0000000000000000e+00  -3.7509892140409373e-06 0.0000000000000000e+00 0.0000000000000000e+00  -4.2234450839130154e-06 0.0000000000000000e+00 0.0000000000000000e+00  -4.7096823709077569e-06 0.0000000000000000e+00 0.0000000000000000e+00  -5.2065723384580886e-06 0.0000000000000000e+00 0.0000000000000000e+00  -5.7160827602020643e-06 0.0000000000000000e+00 0.0000000000000000e+00  -6.2256478929878833e-06 0.0000000000000000e+00 0.0000000000000000e+00  -6.7340028211205245e-06 0.0000000000000000e+00 0.0000000000000000e+00  -7.2307887315607690e-06 0.0000000000000000e+00 0.0000000000000000e+00  -7.7176103841513182e-06 0.0000000000000000e+00 0.0000000000000000e+00  -8.1753598262827450e-06 0.0000000000000000e+00 0.0000000000000000e+00  -8.6058203633542437e-06 0.0000000000000000e+00 0.0000000000000000e+00  -8.9931458901648645e-06 0.0000000000000000e+00 0.0000000000000000e+00  -9.3312674894714747e-06 0.0000000000000000e+00 0.0000000000000000e+00  -9.6099437677960680e-06 0.0000000000000000e+00 0.0000000000000000e+00  -9.8147391429419694e-06 0.0000000000000000e+00 0.0000000000000000e+00  -9.9381481327564634e-06 0.0000000000000000e+00 0.0000000000000000e+00  -9.9709715871887082e-06 0.0000000000000000e+00 0.0000000000000000e+00  -9.8872703252381924e-06 0.0000000000000000e+00 0.0000000000000000e+00  -9.7008525072890952e-06 0.0000000000000000e+00 0.0000000000000000e+00  -9.3956121912190649e-06 0.0000000000000000e+00 0.0000000000000000e+00  -8.9148487973017602e-06 0.0000000000000000e+00 0.0000000000000000e+00  -8.3185745916370036e-06 0.0000000000000000e+00 0.0000000000000000e+00  -7.5626430928781947e-06 0.0000000000000000e+00 0.0000000000000000e+00  -6.6000941762006669e-06 0.0000000000000000e+00 0.0000000000000000e+00  -5.5130579707844131e-06 0.0000000000000000e+00 0.0000000000000000e+00  -4.1958929827321364e-06 0.0000000000000000e+00 0.0000000000000000e+00  -2.7244428551909473e-06 0.0000000000000000e+00 0.0000000000000000e+00  -1.0104015952289061e-06 0.0000000000000000e+00 0.0000000000000000e+00  8.6418814335236041e-07 0.0000000000000000e+00 0.0000000000000000e+00  2.9223018911350773e-06 0.0000000000000000e+00 0.0000000000000000e+00  5.1859961240189413e-06 0.0000000000000000e+00 0.0000000000000000e+00  7.6281719936147363e-06 0.0000000000000000e+00 0.0000000000000000e+00  1.0242181493222796e-05 0.0000000000000000e+00 0.0000000000000000e+00  1.3095157357472763e-05 0.0000000000000000e+00 0.0000000000000000e+00  1.5992612431979078e-05 0.0000000000000000e+00 0.0000000000000000e+00  1.9048554794631017e-05 0.0000000000000000e+00 0.0000000000000000e+00  2.2231526099893543e-05 0.0000000000000000e+00 0.0000000000000000e+00  2.5485162922225265e-05 0.0000000000000000e+00 0.0000000000000000e+00  2.8799883126627159e-05 0.0000000000000000e+00 0.0000000000000000e+00  3.2104422626450610e-05 0.0000000000000000e+00 0.0000000000000000e+00  3.5381557163098494e-05 0.0000000000000000e+00 0.0000000000000000e+00  3.8610358756880240e-05 0.0000000000000000e+00 0.0000000000000000e+00  4.1710053998012711e-05 0.0000000000000000e+00 0.0000000000000000e+00  4.4644305423129890e-05 0.0000000000000000e+00 0.0000000000000000e+00  4.7374566645215719e-05 0.0000000000000000e+00 0.0000000000000000e+00  4.9837985883377578e-05 0.0000000000000000e+00 0.0000000000000000e+00  5.1958840554402984e-05 0.0000000000000000e+00 0.0000000000000000e+00  5.3689957970322203e-05 0.0000000000000000e+00 0.0000000000000000e+00  5.4938750175199319e-05 0.0000000000000000e+00 0.0000000000000000e+00  5.5731270717116163e-05 0.0000000000000000e+00 0.0000000000000000e+00  5.5972321601916104e-05 0.0000000000000000e+00 0.0000000000000000e+00  5.5521577868683032e-05 0.0000000000000000e+00 0.0000000000000000e+00  5.4405962196908994e-05 0.0000000000000000e+00 0.0000000000000000e+00  5.2504845645426599e-05 0.0000000000000000e+00 0.0000000000000000e+00  4.9845955240159889e-05 0.0000000000000000e+00 0.0000000000000000e+00  4.6298468007217761e-05 0.0000000000000000e+00 0.0000000000000000e+00  4.1942969358352213e-05 0.0000000000000000e+00 0.0000000000000000e+00  3.6589333172863083e-05 0.0000000000000000e+00 0.0000000000000000e+00  3.0343431129034935e-05 0.0000000000000000e+00 0.0000000000000000e+00  2.3061609614073246e-05 0.0000000000000000e+00 0.0000000000000000e+00  1.4863617144441179e-05 0.0000000000000000e+00 0.0000000000000000e+00  5.7029931640068733e-06 0.0000000000000000e+00 0.0000000000000000e+00  -4.4458604591221878e-06 0.0000000000000000e+00 0.0000000000000000e+00  -1.5481809527783501e-05 0.0000000000000000e+00 0.0000000000000000e+00  -2.7467262489454455e-05 0.0000000000000000e+00 0.0000000000000000e+00  -4.0235886328030172e-05 0.0000000000000000e+00 0.0000000000000000e+00  -5.3700805439050210e-05 0.0000000000000000e+00 0.0000000000000000e+00  -6.7911327345992808e-05 0.0000000000000000e+00 0.0000000000000000e+00  -8.2559197766403819e-05 0.0000000000000000e+00 0.0000000000000000e+00  -9.7725048627921829e-05 0.0000000000000000e+00 0.0000000000000000e+00  -1.1314966785010440e-04 0.0000000000000000e+00 0.0000000000000000e+00  -1.2867215048000525e-04 0.0000000000000000e+00 0.0000000000000000e+00  -1.4419528432475299e-04 0.0000000000000000e+00 0.0000000000000000e+00  -1.5950309521836211e-04 0.0000000000000000e+00 0.0000000000000000e+00  -1.7435228647014683e-04 0.0000000000000000e+00 0.0000000000000000e+00  -1.8858057073760105e-04 0.0000000000000000e+00 0.0000000000000000e+00  -2.0198772959420432e-04 0.0000000000000000e+00 0.0000000000000000e+00  -2.1427908229247649e-04 0.0000000000000000e+00 0.0000000000000000e+00  -2.2524910501950122e-04 0.0000000000000000e+00 0.0000000000000000e+00  -2.3455673967942849e-04 0.0000000000000000e+00 0.0000000000000000e+00  -2.4215498877243799e-04 0.0000000000000000e+00 0.0000000000000000e+00  -2.4759785261942993e-04 0.0000000000000000e+00 0.0000000000000000e+00  -2.5097564545531692e-04 0.0000000000000000e+00 0.0000000000000000e+00  -2.5138845067214187e-04 0.0000000000000000e+00 0.0000000000000000e+00  -2.4960058978189031e-04 0.0000000000000000e+00 0.0000000000000000e+00  -2.4411133143344461e-04 0.0000000000000000e+00 0.0000000000000000e+00  -2.3610774371495143e-04 0.0000000000000000e+00 0.0000000000000000e+00  -2.2459863681889412e-04 0.0000000000000000e+00 0.0000000000000000e+00  -2.0948612832481721e-04 0.0000000000000000e+00 0.0000000000000000e+00  -1.9070934056582194e-04 0.0000000000000000e+00 0.0000000000000000e+00  -1.6847196728875306e-04 0.0000000000000000e+00 0.0000000000000000e+00  -1.4209017485297356e-04 0.0000000000000000e+00 0.0000000000000000e+00  -1.1275570137611238e-04 0.0000000000000000e+00 0.0000000000000000e+00  -7.9447104653726481e-05 0.0000000000000000e+00 0.0000000000000000e+00  -4.2201264603952205e-05 0.0000000000000000e+00 0.0000000000000000e+00  -1.9799884521783201e-06 0.0000000000000000e+00 0.0000000000000000e+00  4.1976111821125370e-05 0.0000000000000000e+00 0.0000000000000000e+00  8.8422030035090478e-05 0.0000000000000000e+00 0.0000000000000000e+00  1.3790857152193504e-04 0.0000000000000000e+00 0.0000000000000000e+00  1.8962982042473157e-04 0.0000000000000000e+00 0.0000000000000000e+00  2.4339871240467855e-04 0.0000000000000000e+00 0.0000000000000000e+00  2.9849814797197464e-04 0.0000000000000000e+00 0.0000000000000000e+00  3.5456242276239844e-04 0.0000000000000000e+00 0.0000000000000000e+00  4.1103804922146563e-04 0.0000000000000000e+00 0.0000000000000000e+00  4.6737763421511011e-04 0.0000000000000000e+00 0.0000000000000000e+00  5.2266777459835235e-04 0.0000000000000000e+00 0.0000000000000000e+00  5.7655787960777269e-04 0.0000000000000000e+00 0.0000000000000000e+00  6.2780744481179371e-04 0.0000000000000000e+00 0.0000000000000000e+00  6.7637109389321454e-04 0.0000000000000000e+00 0.0000000000000000e+00  7.2054240161986357e-04 0.0000000000000000e+00 0.0000000000000000e+00  7.6060828065191259e-04 0.0000000000000000e+00 0.0000000000000000e+00  7.9444009696751821e-04 0.0000000000000000e+00 0.0000000000000000e+00  8.2275260153414406e-04 0.0000000000000000e+00 0.0000000000000000e+00  8.4399615493916508e-04 0.0000000000000000e+00 0.0000000000000000e+00  8.5650540869226896e-04 0.0000000000000000e+00 0.0000000000000000e+00  8.6143260686403936e-04 0.0000000000000000e+00 0.0000000000000000e+00  8.5640823581438388e-04 0.0000000000000000e+00 0.0000000000000000e+00  8.4235981862153090e-04 0.0000000000000000e+00 0.0000000000000000e+00  8.1673874037915860e-04 0.0000000000000000e+00 0.0000000000000000e+00  7.8163939120765729e-04 0.0000000000000000e+00 0.0000000000000000e+00  7.3420121273692570e-04 0.0000000000000000e+00 0.0000000000000000e+00  6.7616894340363797e-04 0.0000000000000000e+00 0.0000000000000000e+00  6.0537042797168200e-04 0.0000000000000000e+00 0.0000000000000000e+00  5.2411664177672024e-04 0.0000000000000000e+00 0.0000000000000000e+00  4.3135343068652170e-04 0.0000000000000000e+00 0.0000000000000000e+00  3.2596909750778994e-04 0.0000000000000000e+00 0.0000000000000000e+00  2.1081647035469606e-04 0.0000000000000000e+00 0.0000000000000000e+00  8.4540878203274628e-05 0.0000000000000000e+00 0.0000000000000000e+00  -5.0690228774000616e-05 0.0000000000000000e+00 0.0000000000000000e+00  -1.9565653389781932e-04 0.0000000000000000e+00 0.0000000000000000e+00  -3.4753593901151411e-04 0.0000000000000000e+00 0.0000000000000000e+00  -5.0640185133446415e-04 0.0000000000000000e+00 0.0000000000000000e+00  -6.7062938159706108e-04 0.0000000000000000e+00 0.0000000000000000e+00  -8.3853095721581777e-04 0.0000000000000000e+00 0.0000000000000000e+00  -1.0086630425927723e-03 0.0000000000000000e+00 0.0000000000000000e+00  -1.1791950610230818e-03 0.0000000000000000e+00 0.0000000000000000e+00  -1.3479295728201118e-03 0.0000000000000000e+00 0.0000000000000000e+00  -1.5138824610798176e-03 0.0000000000000000e+00 0.0000000000000000e+00  -1.6734837466550565e-03 0.0000000000000000e+00 0.0000000000000000e+00  -1.8268117086840934e-03 0.0000000000000000e+00 0.0000000000000000e+00  -1.9685542396004263e-03 0.0000000000000000e+00 0.0000000000000000e+00  -2.0998400130737335e-03 0.0000000000000000e+00 0.0000000000000000e+00  -2.2150771779676924e-03 0.0000000000000000e+00 0.0000000000000000e+00  -2.3156109274690652e-03 0.0000000000000000e+00 0.0000000000000000e+00  -2.3952937689634924e-03 0.0000000000000000e+00 0.0000000000000000e+00  -2.4563741161561536e-03 0.0000000000000000e+00 0.0000000000000000e+00  -2.4951425014795039e-03 0.0000000000000000e+00 0.0000000000000000e+00  -2.5059617449349758e-03 0.0000000000000000e+00 0.0000000000000000e+00  -2.4940044003015699e-03 0.0000000000