<?xml version="1.0"?>
<VTKFile type="UnstructuredGrid"  version="0.1"  >
<UnstructuredGrid>
<Piece  NumberOfPoints="25032" NumberOfCells="49121">
<Points>
<DataArray  type="Float64"  NumberOfComponents="3"  format="ascii">-5 0 0  40 0 0  40 10 0  0 10 0  0 1 0  -5 1 0  -5 0.75 0  5 0.75 0  5 1.25 0  0 1.25 0  0 1.075 0  1 1.075 0  1 0.925 0  -2 0.925 0  -2 1 0  0 1.5 0  40 1.5 0  -4.924999999999996 0 0  -4.849999999999993 0 0  -4.774999999999989 0 0  -4.699999999999985 0 0  -4.624999999999981 0 0  -4.549999999999978 0 0  -4.474999999999974 0 0  -4.39999999999997 0 0  -4.324999999999966 0 0  -4.249999999999963 0 0  -4.174999999999959 0 0  -4.099999999999955 0 0  -4.024999999999951 0 0  -3.949999999999947 0 0  -3.874999999999943 0 0  -3.79999999999994 0 0  -3.724999999999936 0 0  -3.649999999999932 0 0  -3.574999999999929 0 0  -3.499999999999925 0 0  -3.424999999999921 0 0  -3.349999999999917 0 0  -3.274999999999913 0 0  -3.19999999999993 0 0  -3.124999999999964 0 0  -3.049999999999997 0 0  -2.97500000000003 0 0  -2.900000000000063 0 0  -2.825000000000129 0 0  -2.750000000000199 0 0  -2.675000000000269 0 0  -2.600000000000339 0 0  -2.525000000000407 0 0  -2.450000000000458 0 0  -2.37500000000051 0 0  -2.300000000000562 0 0  -2.225000000000613 0 0  -2.150000000000647 0 0  -2.075000000000662 0 0  -2.000000000000676 0 0  -1.925000000000691 0 0  -1.850000000000705 0 0  -1.775000000000705 0 0  -1.700000000000702 0 0  -1.625000000000698 0 0  -1.550000000000694 0 0  -1.47500000000069 0 0  -1.400000000000686 0 0  -1.325000000000682 0 0  -1.250000000000679 0 0  -1.175000000000675 0 0  -1.100000000000671 0 0  -1.025000000000667 0 0  -0.9500000000006636 0 0  -0.875000000000659 0 0  -0.8000000000006553 0 0  -0.7250000000006516 0 0  -0.6500000000006478 0 0  -0.5750000000006441 0 0  -0.5000000000006395 0 0  -0.4250000000006366 0 0  -0.3500000000006329 0 0  -0.2750000000006292 0 0  -0.2000000000006246 0 0  -0.1250000000006208 0 0  -0.05000000000061799 0 0  0.02499999999938662 0 0  0.09999999999939035 0 0  0.1749999999993941 0 0  0.2499999999993978 0 0  0.3249999999993758 0 0  0.3999999999993431 0 0  0.4749999999993095 0 0  0.5499999999992768 0 0  0.6249999999992433 0 0  0.6999999999991351 0 0  0.7749999999990296 0 0  0.8499999999989214 0 0  0.9249999999988141 0 0  0.9999999999986944 0 0  1.074999999998552 0 0  1.149999999998407 0 0  1.224999999998261 0 0  1.299999999998119 0 0  1.374999999997974 0 0  1.44999999999783 0 0  1.524999999997685 0 0  1.599999999997541 0 0  1.674999999997397 0 0  1.749999999997253 0 0  1.824999999997109 0 0  1.899999999996965 0 0  1.974999999996821 0 0  2.049999999996677 0 0  2.124999999996531 0 0  2.199999999996388 0 0  2.274999999996243 0 0  2.349999999996101 0 0  2.424999999995955 0 0  2.49999999999581 0 0  2.574999999995668 0 0  2.649999999995523 0 0  2.724999999995378 0 0  2.799999999995234 0 0  2.874999999995089 0 0  2.949999999994946 0 0  3.024999999994801 0 0  3.099999999994658 0 0  3.174999999994514 0 0  3.249999999994371 0 0  3.324999999994224 0 0  3.39999999999408 0 0  3.474999999993937 0 0  3.549999999993792 0 0  3.624999999993648 0 0  3.699999999993503 0 0  3.774999999993359 0 0  3.849999999993216 0 0  3.924999999993071 0 0  3.999999999992927 0 0  4.074999999992784 0 0  4.149999999992639 0 0  4.224999999992495 0 0  4.29999999999235 0 0  4.374999999992207 0 0  4.449999999992063 0 0  4.524999999991918 0 0  4.599999999991773 0 0  4.674999999991629 0 0  4.749999999991484 0 0  4.82499999999134 0 0  4.899999999991195 0 0  4.974999999991052 0 0  5.049999999990908 0 0  5.124999999990763 0 0  5.199999999990617 0 0  5.274999999990472 0 0  5.349999999990329 0 0  5.424999999990185 0 0  5.49999999999004 0 0  5.574999999989895 0 0  5.649999999989751 0 0  5.724999999989608 0 0  5.799999999989463 0 0  5.874999999989317 0 0  5.949999999989172 0 0  6.024999999989028 0 0  6.099999999988885 0 0  6.17499999998874 0 0  6.249999999988596 0 0  6.324999999988451 0 0  6.399999999988305 0 0  6.474999999988162 0 0  6.549999999988019 0 0  6.624999999987873 0 0  6.699999999987728 0 0  6.774999999987587 0 0  6.849999999987441 0 0  6.924999999987296 0 0  6.999999999987153 0 0  7.074999999987007 0 0  7.149999999986864 0 0  7.224999999986718 0 0  7.299999999986575 0 0  7.374999999986429 0 0  7.449999999986284 0 0  7.524999999986141 0 0  7.599999999985997 0 0  7.674999999985852 0 0  7.749999999985706 0 0  7.824999999985563 0 0  7.89999999998542 0 0  7.974999999985274 0 0  8.049999999985129 0 0  8.124999999984986 0 0  8.19999999998484 0 0  8.274999999984697 0 0  8.349999999984554 0 0  8.424999999984408 0 0  8.499999999984261 0 0  8.574999999984119 0 0  8.649999999983976 0 0  8.724999999983829 0 0  8.799999999983685 0 0  8.874999999983542 0 0  8.949999999983397 0 0  9.024999999983253 0 0  9.099999999983106 0 0  9.174999999982964 0 0  9.249999999982817 0 0  9.324999999982674 0 0  9.399999999982532 0 0  9.474999999982385 0 0  9.549999999982241 0 0  9.624999999982094 0 0  9.699999999981955 0 0  9.774999999981809 0 0  9.849999999981662 0 0  9.924999999981519 0 0  9.999999999981375 0 0  10.07499999998123 0 0  10.14999999998109 0 0  10.22499999998094 0 0  10.2999999999808 0 0  10.37499999998065 0 0  10.44999999998051 0 0  10.52499999998036 0 0  10.59999999998022 0 0  10.67499999998007 0 0  10.74999999997993 0 0  10.82499999997979 0 0  10.89999999997964 0 0  10.9749999999795 0 0  11.04999999997935 0 0  11.12499999997921 0 0  11.19999999997906 0 0  11.27499999997892 0 0  11.34999999997877 0 0  11.42499999997863 0 0  11.49999999997848 0 0  11.57499999997834 0 0  11.6499999999782 0 0  11.72499999997805 0 0  11.79999999997791 0 0  11.87499999997776 0 0  11.94999999997762 0 0  12.02499999997748 0 0  12.09999999997733 0 0  12.17499999997719 0 0  12.24999999997704 0 0  12.3249999999769 0 0  12.39999999997675 0 0  12.47499999997661 0 0  12.54999999997646 0 0  12.62499999997632 0 0  12.69999999997617 0 0  12.77499999997603 0 0  12.84999999997589 0 0  12.92499999997574 0 0  12.9999999999756 0 0  13.07499999997545 0 0  13.14999999997531 0 0  13.22499999997516 0 0  13.29999999997502 0 0  13.37499999997488 0 0  13.44999999997473 0 0  13.52499999997459 0 0  13.59999999997444 0 0  13.6749999999743 0 0  13.74999999997415 0 0  13.82499999997401 0 0  13.89999999997386 0 0  13.97499999997372 0 0  14.04999999997358 0 0  14.12499999997343 0 0  14.19999999997329 0 0  14.27499999997314 0 0  14.349999999973 0 0  14.42499999997285 0 0  14.49999999997271 0 0  14.57499999997257 0 0  14.64999999997242 0 0  14.72499999997228 0 0  14.79999999997213 0 0  14.87499999997199 0 0  14.94999999997185 0 0  15.0249999999717 0 0  15.09999999997156 0 0  15.17499999997142 0 0  15.24999999997127 0 0  15.32499999997113 0 0  15.39999999997098 0 0  15.47499999997084 0 0  15.54999999997069 0 0  15.62499999997055 0 0  15.69999999997041 0 0  15.77499999997026 0 0  15.84999999997012 0 0  15.92499999996997 0 0  15.99999999996983 0 0  16.07499999996969 0 0  16.14999999996954 0 0  16.2249999999694 0 0  16.29999999996926 0 0  16.37499999996911 0 0  16.44999999996897 0 0  16.52499999996882 0 0  16.59999999996868 0 0  16.67499999996853 0 0  16.74999999996839 0 0  16.82499999996825 0 0  16.8999999999681 0 0  16.97499999996796 0 0  17.04999999996781 0 0  17.12499999996767 0 0  17.19999999996763 0 0  17.27499999996763 0 0  17.34999999996764 0 0  17.42499999996764 0 0  17.49999999996764 0 0  17.57499999996794 0 0  17.64999999996824 0 0  17.72499999996854 0 0  17.79999999996884 0 0  17.87499999996919 0 0  17.94999999996964 0 0  18.02499999997008 0 0  18.09999999997053 0 0  18.17499999997098 0 0  18.24999999997143 0 0  18.32499999997188 0 0  18.39999999997232 0 0  18.47499999997277 0 0  18.54999999997322 0 0  18.62499999997367 0 0  18.69999999997412 0 0  18.77499999997456 0 0  18.84999999997501 0 0  18.92499999997546 0 0  18.99999999997591 0 0  19.07499999997636 0 0  19.14999999997681 0 0  19.22499999997725 0 0  19.2999999999777 0 0  19.37499999997815 0 0  19.4499999999786 0 0  19.52499999997904 0 0  19.5999999999795 0 0  19.67499999997995 0 0  19.74999999998039 0 0  19.82499999998084 0 0  19.89999999998129 0 0  19.97499999998174 0 0  20.04999999998218 0 0  20.12499999998263 0 0  20.19999999998308 0 0  20.27499999998353 0 0  20.34999999998398 0 0  20.42499999998443 0 0  20.49999999998487 0 0  20.57499999998532 0 0  20.64999999998576 0 0  20.72499999998622 0 0  20.79999999998667 0 0  20.87499999998711 0 0  20.94999999998756 0 0  21.024999999988 0 0  21.09999999998846 0 0  21.17499999998891 0 0  21.24999999998935 0 0  21.3249999999898 0 0  21.39999999999025 0 0  21.4749999999907 0 0  21.54999999999115 0 0  21.62499999999159 0 0  21.69999999999204 0 0  21.77499999999249 0 0  21.84999999999294 0 0  21.92499999999339 0 0  21.99999999999383 0 0  22.07499999999428 0 0  22.14999999999473 0 0  22.22499999999518 0 0  22.29999999999563 0 0  22.37499999999607 0 0  22.44999999999652 0 0  22.52499999999697 0 0  22.59999999999742 0 0  22.67499999999787 0 0  22.74999999999831 0 0  22.82499999999876 0 0  22.89999999999922 0 0  22.97499999999966 0 0  23.05000000000011 0 0  23.12500000000055 0 0  23.200000000001 0 0  23.27500000000145 0 0  23.3500000000019 0 0  23.42500000000235 0 0  23.5000000000028 0 0  23.57500000000324 0 0  23.65000000000369 0 0  23.72500000000414 0 0  23.80000000000459 0 0  23.87500000000503 0 0  23.95000000000548 0 0  24.02500000000594 0 0  24.10000000000638 0 0  24.17500000000683 0 0  24.25000000000728 0 0  24.32500000000773 0 0  24.40000000000817 0 0  24.47500000000862 0 0  24.55000000000907 0 0  24.62500000000952 0 0  24.70000000000997 0 0  24.77500000001042 0 0  24.85000000001086 0 0  24.92500000001131 0 0  25.00000000001176 0 0  25.07500000001221 0 0  25.15000000001266 0 0  25.2250000000131 0 0  25.30000000001355 0 0  25.37500000001399 0 0  25.45000000001445 0 0  25.5250000000149 0 0  25.60000000001534 0 0  25.67500000001579 0 0  25.75000000001624 0 0  25.82500000001669 0 0  25.90000000001714 0 0  25.97500000001758 0 0  26.05000000001803 0 0  26.12500000001848 0 0  26.2000000000189
[...]
<PointData  Vectors="f_410-0"> 
<DataArray  type="Float64"  Name="f_410-0"  NumberOfComponents="3" format="ascii">-1.8553495085683175e-07 0.0000000000000000e+00 0.0000000000000000e+00  -2.9982940760113042e-02 0.0000000000000000e+00 0.0000000000000000e+00  1.1485408824812326e-05 8.5000153688496357e-06 -2.9702043101146760e-21  0.0000000000000000e+00 0.0000000000000000e+00 0.0000000000000000e+00  0.0000000000000000e+00 0.0000000000000000e+00 0.0000000000000000e+00  -1.3738718615993655e-07 0.0000000000000000e+00 -1.9695669101021710e-17  -1.8036676625230548e-07 0.0000000000000000e+00 4.7887878021415377e-16  -1.1416852477291801e-05 1.6232687281723209e-06 -2.2173529521769929e-15  1.6355044949257395e-06 1.7878354985676244e-06 -5.3674701553957801e-18  0.0000000000000000e+00 0.0000000000000000e+00 0.0000000000000000e+00  0.0000000000000000e+00 0.0000000000000000e+00 0.0000000000000000e+00  1.8168406616225472e-09 -2.5643128538470567e-07 -3.2465755281409100e-17  -8.2170179763067486e-08 -2.4923190679952233e-07 2.5885407444327739e-17  -2.4081336246295821e-07 -3.0209960429225426e-10 -8.6389709218759257e-17  0.0000000000000000e+00 0.0000000000000000e+00 0.0000000000000000e+00  0.0000000000000000e+00 0.0000000000000000e+00 0.0000000000000000e+00  -6.7003840464116338e-02 3.5711566648457350e-02 -1.8423660161033113e-16  -1.8550826212317211e-07 0.0000000000000000e+00 0.0000000000000000e+00  -1.8543779617565975e-07 0.0000000000000000e+00 0.0000000000000000e+00  -1.8531588446656827e-07 0.0000000000000000e+00 0.0000000000000000e+00  -1.8516086170508184e-07 0.0000000000000000e+00 0.0000000000000000e+00  -1.8498657045383061e-07 0.0000000000000000e+00 0.0000000000000000e+00  -1.8478877808584366e-07 0.0000000000000000e+00 0.0000000000000000e+00  -1.8461272283612852e-07 0.0000000000000000e+00 0.0000000000000000e+00  -1.8446698969851564e-07 0.0000000000000000e+00 0.0000000000000000e+00  -1.8438487027039526e-07 0.0000000000000000e+00 0.0000000000000000e+00  -1.8439426956296406e-07 0.0000000000000000e+00 0.0000000000000000e+00  -1.8450529115031036e-07 0.0000000000000000e+00 0.0000000000000000e+00  -1.8476531254632163e-07 0.0000000000000000e+00 0.0000000000000000e+00  -1.8516940515933859e-07 0.0000000000000000e+00 0.0000000000000000e+00  -1.8573201091307480e-07 0.0000000000000000e+00 0.0000000000000000e+00  -1.8647221020778356e-07 0.0000000000000000e+00 0.0000000000000000e+00  -1.8736793700131793e-07 0.0000000000000000e+00 0.0000000000000000e+00  -1.8845285167060217e-07 0.0000000000000000e+00 0.0000000000000000e+00  -1.8969515213777999e-07 0.0000000000000000e+00 0.0000000000000000e+00  -1.9107983703718594e-07 0.0000000000000000e+00 0.0000000000000000e+00  -1.9261610517357282e-07 0.0000000000000000e+00 0.0000000000000000e+00  -1.9425712736763731e-07 0.0000000000000000e+00 0.0000000000000000e+00  -1.9598377461547520e-07 0.0000000000000000e+00 0.0000000000000000e+00  -1.9779245902933865e-07 0.0000000000000000e+00 0.0000000000000000e+00  -1.9962641612935558e-07 0.0000000000000000e+00 0.0000000000000000e+00  -2.0147703851361137e-07 0.0000000000000000e+00 0.0000000000000000e+00  -2.0330150018342418e-07 0.0000000000000000e+00 0.0000000000000000e+00  -2.0507148796761255e-07 0.0000000000000000e+00 0.0000000000000000e+00  -2.0675692106228144e-07 0.0000000000000000e+00 0.0000000000000000e+00  -2.0831985286971206e-07 0.0000000000000000e+00 0.0000000000000000e+00  -2.0974253618349276e-07 0.0000000000000000e+00 0.0000000000000000e+00  -2.1097643622934864e-07 0.0000000000000000e+00 0.0000000000000000e+00  -2.1199268297471887e-07 0.0000000000000000e+00 0.0000000000000000e+00  -2.1281140902434602e-07 0.0000000000000000e+00 0.0000000000000000e+00  -2.1332011300453596e-07 0.0000000000000000e+00 0.0000000000000000e+00  -2.1358090618758128e-07 0.0000000000000000e+00 0.0000000000000000e+00  -2.1356482906799137e-07 0.0000000000000000e+00 0.0000000000000000e+00  -2.1320317461818095e-07 0.0000000000000000e+00 0.0000000000000000e+00  -2.1252692162444766e-07 0.0000000000000000e+00 0.0000000000000000e+00  -2.1155573458318973e-07 0.0000000000000000e+00 0.0000000000000000e+00  -2.1022037272056342e-07 0.0000000000000000e+00 0.0000000000000000e+00  -2.0857222242438244e-07 0.0000000000000000e+00 0.0000000000000000e+00  -2.0660082951518884e-07 0.0000000000000000e+00 0.0000000000000000e+00  -2.0431581150013411e-07 0.0000000000000000e+00 0.0000000000000000e+00  -2.0173507616577754e-07 0.0000000000000000e+00 0.0000000000000000e+00  -1.9886754512499090e-07 0.0000000000000000e+00 0.0000000000000000e+00  -1.9571862890476272e-07 0.0000000000000000e+00 0.0000000000000000e+00  -1.9237426416847017e-07 0.0000000000000000e+00 0.0000000000000000e+00  -1.8873923322543486e-07 0.0000000000000000e+00 0.0000000000000000e+00  -1.8496939079334380e-07 0.0000000000000000e+00 0.0000000000000000e+00  -1.8100297364975803e-07 0.0000000000000000e+00 0.0000000000000000e+00  -1.7689396175078564e-07 0.0000000000000000e+00 0.0000000000000000e+00  -1.7264843751496728e-07 0.0000000000000000e+00 0.0000000000000000e+00  -1.6830771071523420e-07 0.0000000000000000e+00 0.0000000000000000e+00  -1.6385478657892465e-07 0.0000000000000000e+00 0.0000000000000000e+00  -1.5928939104333509e-07 0.0000000000000000e+00 0.0000000000000000e+00  -1.5465602602421974e-07 0.0000000000000000e+00 0.0000000000000000e+00  -1.4983553138104924e-07 0.0000000000000000e+00 0.0000000000000000e+00  -1.4494282835810717e-07 0.0000000000000000e+00 0.0000000000000000e+00  -1.3969304269915931e-07 0.0000000000000000e+00 0.0000000000000000e+00  -1.3420846931457034e-07 0.0000000000000000e+00 0.0000000000000000e+00  -1.2833272745130895e-07 0.0000000000000000e+00 0.0000000000000000e+00  -1.2181351197637211e-07 0.0000000000000000e+00 0.0000000000000000e+00  -1.1456387204779457e-07 0.0000000000000000e+00 0.0000000000000000e+00  -1.0653208624271861e-07 0.0000000000000000e+00 0.0000000000000000e+00  -9.7226834241357586e-08 0.0000000000000000e+00 0.0000000000000000e+00  -8.6590371464080490e-08 0.0000000000000000e+00 0.0000000000000000e+00  -7.4587166480256443e-08 0.0000000000000000e+00 0.0000000000000000e+00  -6.0759466860011455e-08 0.0000000000000000e+00 0.0000000000000000e+00  -4.4633263837240467e-08 0.0000000000000000e+00 0.0000000000000000e+00  -2.7027737359278992e-08 0.0000000000000000e+00 0.0000000000000000e+00  -6.4149516685163819e-09 0.0000000000000000e+00 0.0000000000000000e+00  1.5651336467014825e-08 0.0000000000000000e+00 0.0000000000000000e+00  4.1028649627804224e-08 0.0000000000000000e+00 0.0000000000000000e+00  6.8361897140722081e-08 0.0000000000000000e+00 0.0000000000000000e+00  9.7857053213713819e-08 0.0000000000000000e+00 0.0000000000000000e+00  1.3031742951217780e-07 0.0000000000000000e+00 0.0000000000000000e+00  1.6442653758144596e-07 0.0000000000000000e+00 0.0000000000000000e+00  2.0067520407888390e-07 0.0000000000000000e+00 0.0000000000000000e+00  2.3891238228904668e-07 0.0000000000000000e+00 0.0000000000000000e+00  2.7866754618315122e-07 0.0000000000000000e+00 0.0000000000000000e+00  3.1968539548941082e-07 0.0000000000000000e+00 0.0000000000000000e+00  3.6159920160209497e-07 0.0000000000000000e+00 0.0000000000000000e+00  4.0465090343158934e-07 0.0000000000000000e+00 0.0000000000000000e+00  4.4720969959855987e-07 0.0000000000000000e+00 0.0000000000000000e+00  4.9029072896824974e-07 0.0000000000000000e+00 0.0000000000000000e+00  5.3187359908189749e-07 0.0000000000000000e+00 0.0000000000000000e+00  5.7278892315072951e-07 0.0000000000000000e+00 0.0000000000000000e+00  6.1135541483389793e-07 0.0000000000000000e+00 0.0000000000000000e+00  6.4736778694496888e-07 0.0000000000000000e+00 0.0000000000000000e+00  6.8000656947747984e-07 0.0000000000000000e+00 0.0000000000000000e+00  7.0818873204445583e-07 0.0000000000000000e+00 0.0000000000000000e+00  7.3111725175378021e-07 0.0000000000000000e+00 0.0000000000000000e+00  7.4795978623644882e-07 0.0000000000000000e+00 0.0000000000000000e+00  7.5722610199799926e-07 0.0000000000000000e+00 0.0000000000000000e+00  7.5842341631616038e-07 0.0000000000000000e+00 0.0000000000000000e+00  7.4961757496965642e-07 0.0000000000000000e+00 0.0000000000000000e+00  7.2956789422590218e-07 0.0000000000000000e+00 0.0000000000000000e+00  6.9811825062239776e-07 0.0000000000000000e+00 0.0000000000000000e+00  6.5178414797445490e-07 0.0000000000000000e+00 0.0000000000000000e+00  5.9232019582378212e-07 0.0000000000000000e+00 0.0000000000000000e+00  5.1402201909679311e-07 0.0000000000000000e+00 0.0000000000000000e+00  4.1914093401965437e-07 0.0000000000000000e+00 0.0000000000000000e+00  3.0521805634379677e-07 0.0000000000000000e+00 0.0000000000000000e+00  1.6916759982944057e-07 0.0000000000000000e+00 0.0000000000000000e+00  1.1241376505748072e-08 0.0000000000000000e+00 0.0000000000000000e+00  -1.6895421405160982e-07 0.0000000000000000e+00 0.0000000000000000e+00  -3.7539985923628122e-07 0.0000000000000000e+00 0.0000000000000000e+00  -6.0687067952336610e-07 0.0000000000000000e+00 0.0000000000000000e+00  -8.6373189783280032e-07 0.0000000000000000e+00 0.0000000000000000e+00  -1.1477180000424024e-06 0.0000000000000000e+00 0.0000000000000000e+00  -1.4625755761158143e-06 0.0000000000000000e+00 0.0000000000000000e+00  -1.7985998204976461e-06 0.0000000000000000e+00 0.0000000000000000e+00  -2.1688150961411051e-06 0.0000000000000000e+00 0.0000000000000000e+00  -2.5571028072382544e-06 0.0000000000000000e+00 0.0000000000000000e+00  -2.9792466640783925e-06 0.0000000000000000e+00 0.0000000000000000e+00  -3.4204389139274718e-06 0.0000000000000000e+00 0.0000000000000000e+00  -3.8833723896470515e-06 0.0000000000000000e+00 0.0000000000000000e+00  -4.3687843026878844e-06 0.0000000000000000e+00 0.0000000000000000e+00  -4.8682400369682266e-06 0.0000000000000000e+00 0.0000000000000000e+00  -5.3783714101412761e-06 0.0000000000000000e+00 0.0000000000000000e+00  -5.8998782068891669e-06 0.0000000000000000e+00 0.0000000000000000e+00  -6.4212708737991124e-06 0.0000000000000000e+00 0.0000000000000000e+00  -6.9397872528715113e-06 0.0000000000000000e+00 0.0000000000000000e+00  -7.4462591163518572e-06 0.0000000000000000e+00 0.0000000000000000e+00  -7.9402543653740705e-06 0.0000000000000000e+00 0.0000000000000000e+00  -8.4039891616176347e-06 0.0000000000000000e+00 0.0000000000000000e+00  -8.8374478286384542e-06 0.0000000000000000e+00 0.0000000000000000e+00  -9.2259394891306553e-06 0.0000000000000000e+00 0.0000000000000000e+00  -9.5614748727968557e-06 0.0000000000000000e+00 0.0000000000000000e+00  -9.8346545083601743e-06 0.0000000000000000e+00 0.0000000000000000e+00  -1.0029633658183569e-05 0.0000000000000000e+00 0.0000000000000000e+00  -1.0139009823916793e-05 0.0000000000000000e+00 0.0000000000000000e+00  -1.0153717437215094e-05 0.0000000000000000e+00 0.0000000000000000e+00  -1.0045970827540071e-05 0.0000000000000000e+00 0.0000000000000000e+00  -9.8313517982718894e-06 0.0000000000000000e+00 0.0000000000000000e+00  -9.4925777717987236e-06 0.0000000000000000e+00 0.0000000000000000e+00  -8.9705695198865532e-06 0.0000000000000000e+00 0.0000000000000000e+00  -8.3291938318795658e-06 0.0000000000000000e+00 0.0000000000000000e+00  -7.5205154888813468e-06 0.0000000000000000e+00 0.0000000000000000e+00  -6.4989944725565983e-06 0.0000000000000000e+00 0.0000000000000000e+00  -5.3475219010982412e-06 0.0000000000000000e+00 0.0000000000000000e+00  -3.9585242862302596e-06 0.0000000000000000e+00 0.0000000000000000e+00  -2.4095223350426941e-06 0.0000000000000000e+00 0.0000000000000000e+00  -6.1186477663583517e-07 0.0000000000000000e+00 0.0000000000000000e+00  1.3505498136416901e-06 0.0000000000000000e+00 0.0000000000000000e+00  3.5030075845190166e-06 0.0000000000000000e+00 0.0000000000000000e+00  5.8648501997499052e-06 0.0000000000000000e+00 0.0000000000000000e+00  8.4082231082189078e-06 0.0000000000000000e+00 0.0000000000000000e+00  1.1126896184774663e-05 0.0000000000000000e+00 0.0000000000000000e+00  1.4081310598809577e-05 0.0000000000000000e+00 0.0000000000000000e+00  1.7086640588088124e-05 0.0000000000000000e+00 0.0000000000000000e+00  2.0248342291532693e-05 0.0000000000000000e+00 0.0000000000000000e+00  2.3531548894704718e-05 0.0000000000000000e+00 0.0000000000000000e+00  2.6879628812253536e-05 0.0000000000000000e+00 0.0000000000000000e+00  3.0282793314755260e-05 0.0000000000000000e+00 0.0000000000000000e+00  3.3669257371333256e-05 0.0000000000000000e+00 0.0000000000000000e+00  3.7020868615664375e-05 0.0000000000000000e+00 0.0000000000000000e+00  4.0303125047046221e-05 0.0000000000000000e+00 0.0000000000000000e+00  4.3448572017102320e-05 0.0000000000000000e+00 0.0000000000000000e+00  4.6404595412175644e-05 0.0000000000000000e+00 0.0000000000000000e+00  4.9142793901782705e-05 0.0000000000000000e+00 0.0000000000000000e+00  5.1594489127966897e-05 0.0000000000000000e+00 0.0000000000000000e+00  5.3671836848192910e-05 0.0000000000000000e+00 0.0000000000000000e+00  5.5337312537315292e-05 0.0000000000000000e+00 0.0000000000000000e+00  5.6483544958858341e-05 0.0000000000000000e+00 0.0000000000000000e+00  5.7153460782038027e-05 0.0000000000000000e+00 0.0000000000000000e+00  5.7242728972699707e-05 0.0000000000000000e+00 0.0000000000000000e+00  5.6595931365734308e-05 0.0000000000000000e+00 0.0000000000000000e+00  5.5254090488344787e-05 0.0000000000000000e+00 0.0000000000000000e+00  5.3088835167577501e-05 0.0000000000000000e+00 0.0000000000000000e+00  5.0131337653055403e-05 0.0000000000000000e+00 0.0000000000000000e+00  4.6248804233410270e-05 0.0000000000000000e+00 0.0000000000000000e+00  4.1525071906744685e-05 0.0000000000000000e+00 0.0000000000000000e+00  3.5767296812300125e-05 0.0000000000000000e+00 0.0000000000000000e+00  2.9086414887164289e-05 0.0000000000000000e+00 0.0000000000000000e+00  2.1337646854803295e-05 0.0000000000000000e+00 0.0000000000000000e+00  1.2644300260953438e-05 0.0000000000000000e+00 0.0000000000000000e+00  2.9672211258224766e-06 0.0000000000000000e+00 0.0000000000000000e+00  -7.7174928237792196e-06 0.0000000000000000e+00 0.0000000000000000e+00  -1.9307242860731834e-05 0.0000000000000000e+00 0.0000000000000000e+00  -3.1850504608115216e-05 0.0000000000000000e+00 0.0000000000000000e+00  -4.5179170091026518e-05 0.0000000000000000e+00 0.0000000000000000e+00  -5.9203671123870719e-05 0.0000000000000000e+00 0.0000000000000000e+00  -7.3955703958760512e-05 0.0000000000000000e+00 0.0000000000000000e+00  -8.9133998472626399e-05 0.0000000000000000e+00 0.0000000000000000e+00  -1.0479353190817251e-04 0.0000000000000000e+00 0.0000000000000000e+00  -1.2066797300002602e-04 0.0000000000000000e+00 0.0000000000000000e+00  -1.3661211040500110e-04 0.0000000000000000e+00 0.0000000000000000e+00  -1.5248126659304413e-04 0.0000000000000000e+00 0.0000000000000000e+00  -1.6806747661578337e-04 0.0000000000000000e+00 0.0000000000000000e+00  -1.8312563503323140e-04 0.0000000000000000e+00 0.0000000000000000e+00  -1.9745622633919233e-04 0.0000000000000000e+00 0.0000000000000000e+00  -2.1090873822292590e-04 0.0000000000000000e+00 0.0000000000000000e+00  -2.2308171716245914e-04 0.0000000000000000e+00 0.0000000000000000e+00  -2.3389287854352881e-04 0.0000000000000000e+00 0.0000000000000000e+00  -2.4281380295149396e-04 0.0000000000000000e+00 0.0000000000000000e+00  -2.4998271123579708e-04 0.0000000000000000e+00 0.0000000000000000e+00  -2.5480426503482706e-04 0.0000000000000000e+00 0.0000000000000000e+00  -2.5748202648878237e-04 0.0000000000000000e+00 0.0000000000000000e+00  -2.5696345240598390e-04 0.0000000000000000e+00 0.0000000000000000e+00  -2.5418228413730937e-04 0.0000000000000000e+00 0.0000000000000000e+00  -2.4745426810691523e-04 0.0000000000000000e+00 0.0000000000000000e+00  -2.3815077302873354e-04 0.0000000000000000e+00 0.0000000000000000e+00  -2.2515668891838012e-04 0.0000000000000000e+00 0.0000000000000000e+00  -2.0842862252592903e-04 0.0000000000000000e+00 0.0000000000000000e+00  -1.8789445337262761e-04 0.0000000000000000e+00 0.0000000000000000e+00  -1.6380210626096195e-04 0.0000000000000000e+00 0.0000000000000000e+00  -1.3544239728409489e-04 0.0000000000000000e+00 0.0000000000000000e+00  -1.0405071201073421e-04 0.0000000000000000e+00 0.0000000000000000e+00  -6.8599062972944145e-05 0.0000000000000000e+00 0.0000000000000000e+00  -2.9166268255557113e-05 0.0000000000000000e+00 0.0000000000000000e+00  1.3280175609902870e-05 0.0000000000000000e+00 0.0000000000000000e+00  5.9450206008435369e-05 0.0000000000000000e+00 0.0000000000000000e+00  1.0811645125999686e-04 0.0000000000000000e+00 0.0000000000000000e+00  1.5975855171125196e-04 0.0000000000000000e+00 0.0000000000000000e+00  2.1356575015124440e-04 0.0000000000000000e+00 0.0000000000000000e+00  2.6928499459485976e-04 0.0000000000000000e+00 0.0000000000000000e+00  3.2620154629067923e-04 0.0000000000000000e+00 0.0000000000000000e+00  3.8396224427041196e-04 0.0000000000000000e+00 0.0000000000000000e+00  4.4180658451821003e-04 0.0000000000000000e+00 0.0000000000000000e+00  4.9936914174383699e-04 0.0000000000000000e+00 0.0000000000000000e+00  5.5554791017787056e-04 0.0000000000000000e+00 0.0000000000000000e+00  6.1004197583544009e-04 0.0000000000000000e+00 0.0000000000000000e+00  6.6148511751996941e-04 0.0000000000000000e+00 0.0000000000000000e+00  7.0993398064547904e-04 0.0000000000000000e+00 0.0000000000000000e+00  7.5359378908768299e-04 0.0000000000000000e+00 0.0000000000000000e+00  7.9267025607351145e-04 0.0000000000000000e+00 0.0000000000000000e+00  8.2507692516074131e-04 0.0000000000000000e+00 0.0000000000000000e+00  8.5150012963699823e-04 0.0000000000000000e+00 0.0000000000000000e+00  8.7046818414398619e-04 0.0000000000000000e+00 0.0000000000000000e+00  8.8005224242455741e-04 0.0000000000000000e+00 0.0000000000000000e+00  8.8167208086216474e-04 0.0000000000000000e+00 0.0000000000000000e+00  8.7283077741270919e-04 0.0000000000000000e+00 0.0000000000000000e+00  8.5448719642286172e-04 0.0000000000000000e+00 0.0000000000000000e+00  8.2408193214918591e-04 0.0000000000000000e+00 0.0000000000000000e+00  7.8379454535597683e-04 0.0000000000000000e+00 0.0000000000000000e+00  7.3080428527778690e-04 0.0000000000000000e+00 0.0000000000000000e+00  6.6675863420360092e-04 0.0000000000000000e+00 0.0000000000000000e+00  5.8970181920011409e-04 0.0000000000000000e+00 0.0000000000000000e+00  5.0187626816893102e-04 0.0000000000000000e+00 0.0000000000000000e+00  4.0235287232776398e-04 0.0000000000000000e+00 0.0000000000000000e+00  2.9006417597469432e-04 0.0000000000000000e+00 0.0000000000000000e+00  1.6787174160681921e-04 0.0000000000000000e+00 0.0000000000000000e+00  3.4633240559800573e-05 0.0000000000000000e+00 0.0000000000000000e+00  -1.0754938748479991e-04 0.0000000000000000e+00 0.0000000000000000e+00  -2.5919324432067454e-04 0.0000000000000000e+00 0.0000000000000000e+00  -4.1760493750174352e-04 0.0000000000000000e+00 0.0000000000000000e+00  -5.8258485921273008e-04 0.0000000000000000e+00 0.0000000000000000e+00  -7.5251777411572309e-04 0.0000000000000000e+00 0.0000000000000000e+00  -9.2548208608101302e-04 0.0000000000000000e+00 0.0000000000000000e+00  -1.1000992833775792e-03 0.0000000000000000e+00 0.0000000000000000e+00  -1.2745345050280282e-03 0.0000000000000000e+00 0.0000000000000000e+00  -1.4459973583608595e-03 0.0000000000000000e+00 0.0000000000000000e+00  -1.6140581820998246e-03 0.0000000000000000e+00 0.0000000000000000e+00  -1.7745491326607999e-03 0.0000000000000000e+00 0.0000000000000000e+00  -1.9279201662654099e-03 0.0000000000000000e+00 0.0000000000000000e+00  -2.0682435087006948e-03 0.0000000000000000e+00 0.0000000000000000e+00  -2.1972772142430171e-03 0.0000000000000000e+00 0.0000000000000000e+00  -2.3085854075313161e-03 0.0000000000000000e+00 0.0000000000000000e+00  -2.4042533687145900e-03 0.0000000000000000e+00 0.0000000000000000e+00  -2.4774302714424142e-03 0.0000000000000000e+00 0.0000000000000000e+00  -2.5309248639122464e-03 0.0000000000000000e+00 0.0000000000000000e+00  -2.5608621081364543e-03 0.0000000000000000e+00 0.0000000000000000e+00  -2.5612567832686978e-03 0.0000000000000000e+00 0.0000000000000000e+00  -2.5378014235349394e-03 0.000000000