<?xml version="1.0"?>
<VTKFile type="UnstructuredGrid"  version="0.1"  >
<UnstructuredGrid>
<Piece  NumberOfPoints="25032" NumberOfCells="49121">
<Points>
<DataArray  type="Float64"  NumberOfComponents="3"  format="ascii">-5 0 0  40 0 0  40 10 0  0 10 0  0 1 0  -5 1 0  -5 0.75 0  5 0.75 0  5 1.25 0  0 1.25 0  0 1.075 0  1 1.075 0  1 0.925 0  -2 0.925 0  -2 1 0  0 1.5 0  40 1.5 0  -4.924999999999996 0 0  -4.849999999999993 0 0  -4.774999999999989 0 0  -4.699999999999985 0 0  -4.624999999999981 0 0  -4.549999999999978 0 0  -4.474999999999974 0 0  -4.39999999999997 0 0  -4.324999999999966 0 0  -4.249999999999963 0 0  -4.174999999999959 0 0  -4.099999999999955 0 0  -4.024999999999951 0 0  -3.949999999999947 0 0  -3.874999999999943 0 0  -3.79999999999994 0 0  -3.724999999999936 0 0  -3.649999999999932 0 0  -3.574999999999929 0 0  -3.499999999999925 0 0  -3.424999999999921 0 0  -3.349999999999917 0 0  -3.274999999999913 0 0  -3.19999999999993 0 0  -3.124999999999964 0 0  -3.049999999999997 0 0  -2.97500000000003 0 0  -2.900000000000063 0 0  -2.825000000000129 0 0  -2.750000000000199 0 0  -2.675000000000269 0 0  -2.600000000000339 0 0  -2.525000000000407 0 0  -2.450000000000458 0 0  -2.37500000000051 0 0  -2.300000000000562 0 0  -2.225000000000613 0 0  -2.150000000000647 0 0  -2.075000000000662 0 0  -2.000000000000676 0 0  -1.925000000000691 0 0  -1.850000000000705 0 0  -1.775000000000705 0 0  -1.700000000000702 0 0  -1.625000000000698 0 0  -1.550000000000694 0 0  -1.47500000000069 0 0  -1.400000000000686 0 0  -1.325000000000682 0 0  -1.250000000000679 0 0  -1.175000000000675 0 0  -1.100000000000671 0 0  -1.025000000000667 0 0  -0.9500000000006636 0 0  -0.875000000000659 0 0  -0.8000000000006553 0 0  -0.7250000000006516 0 0  -0.6500000000006478 0 0  -0.5750000000006441 0 0  -0.5000000000006395 0 0  -0.4250000000006366 0 0  -0.3500000000006329 0 0  -0.2750000000006292 0 0  -0.2000000000006246 0 0  -0.1250000000006208 0 0  -0.05000000000061799 0 0  0.02499999999938662 0 0  0.09999999999939035 0 0  0.1749999999993941 0 0  0.2499999999993978 0 0  0.3249999999993758 0 0  0.3999999999993431 0 0  0.4749999999993095 0 0  0.5499999999992768 0 0  0.6249999999992433 0 0  0.6999999999991351 0 0  0.7749999999990296 0 0  0.8499999999989214 0 0  0.9249999999988141 0 0  0.9999999999986944 0 0  1.074999999998552 0 0  1.149999999998407 0 0  1.224999999998261 0 0  1.299999999998119 0 0  1.374999999997974 0 0  1.44999999999783 0 0  1.524999999997685 0 0  1.599999999997541 0 0  1.674999999997397 0 0  1.749999999997253 0 0  1.824999999997109 0 0  1.899999999996965 0 0  1.974999999996821 0 0  2.049999999996677 0 0  2.124999999996531 0 0  2.199999999996388 0 0  2.274999999996243 0 0  2.349999999996101 0 0  2.424999999995955 0 0  2.49999999999581 0 0  2.574999999995668 0 0  2.649999999995523 0 0  2.724999999995378 0 0  2.799999999995234 0 0  2.874999999995089 0 0  2.949999999994946 0 0  3.024999999994801 0 0  3.099999999994658 0 0  3.174999999994514 0 0  3.249999999994371 0 0  3.324999999994224 0 0  3.39999999999408 0 0  3.474999999993937 0 0  3.549999999993792 0 0  3.624999999993648 0 0  3.699999999993503 0 0  3.774999999993359 0 0  3.849999999993216 0 0  3.924999999993071 0 0  3.999999999992927 0 0  4.074999999992784 0 0  4.149999999992639 0 0  4.224999999992495 0 0  4.29999999999235 0 0  4.374999999992207 0 0  4.449999999992063 0 0  4.524999999991918 0 0  4.599999999991773 0 0  4.674999999991629 0 0  4.749999999991484 0 0  4.82499999999134 0 0  4.899999999991195 0 0  4.974999999991052 0 0  5.049999999990908 0 0  5.124999999990763 0 0  5.199999999990617 0 0  5.274999999990472 0 0  5.349999999990329 0 0  5.424999999990185 0 0  5.49999999999004 0 0  5.574999999989895 0 0  5.649999999989751 0 0  5.724999999989608 0 0  5.799999999989463 0 0  5.874999999989317 0 0  5.949999999989172 0 0  6.024999999989028 0 0  6.099999999988885 0 0  6.17499999998874 0 0  6.249999999988596 0 0  6.324999999988451 0 0  6.399999999988305 0 0  6.474999999988162 0 0  6.549999999988019 0 0  6.624999999987873 0 0  6.699999999987728 0 0  6.774999999987587 0 0  6.849999999987441 0 0  6.924999999987296 0 0  6.999999999987153 0 0  7.074999999987007 0 0  7.149999999986864 0 0  7.224999999986718 0 0  7.299999999986575 0 0  7.374999999986429 0 0  7.449999999986284 0 0  7.524999999986141 0 0  7.599999999985997 0 0  7.674999999985852 0 0  7.749999999985706 0 0  7.824999999985563 0 0  7.89999999998542 0 0  7.974999999985274 0 0  8.049999999985129 0 0  8.124999999984986 0 0  8.19999999998484 0 0  8.274999999984697 0 0  8.349999999984554 0 0  8.424999999984408 0 0  8.499999999984261 0 0  8.574999999984119 0 0  8.649999999983976 0 0  8.724999999983829 0 0  8.799999999983685 0 0  8.874999999983542 0 0  8.949999999983397 0 0  9.024999999983253 0 0  9.099999999983106 0 0  9.174999999982964 0 0  9.249999999982817 0 0  9.324999999982674 0 0  9.399999999982532 0 0  9.474999999982385 0 0  9.549999999982241 0 0  9.624999999982094 0 0  9.699999999981955 0 0  9.774999999981809 0 0  9.849999999981662 0 0  9.924999999981519 0 0  9.999999999981375 0 0  10.07499999998123 0 0  10.14999999998109 0 0  10.22499999998094 0 0  10.2999999999808 0 0  10.37499999998065 0 0  10.44999999998051 0 0  10.52499999998036 0 0  10.59999999998022 0 0  10.67499999998007 0 0  10.74999999997993 0 0  10.82499999997979 0 0  10.89999999997964 0 0  10.9749999999795 0 0  11.04999999997935 0 0  11.12499999997921 0 0  11.19999999997906 0 0  11.27499999997892 0 0  11.34999999997877 0 0  11.42499999997863 0 0  11.49999999997848 0 0  11.57499999997834 0 0  11.6499999999782 0 0  11.72499999997805 0 0  11.79999999997791 0 0  11.87499999997776 0 0  11.94999999997762 0 0  12.02499999997748 0 0  12.09999999997733 0 0  12.17499999997719 0 0  12.24999999997704 0 0  12.3249999999769 0 0  12.39999999997675 0 0  12.47499999997661 0 0  12.54999999997646 0 0  12.62499999997632 0 0  12.69999999997617 0 0  12.77499999997603 0 0  12.84999999997589 0 0  12.92499999997574 0 0  12.9999999999756 0 0  13.07499999997545 0 0  13.14999999997531 0 0  13.22499999997516 0 0  13.29999999997502 0 0  13.37499999997488 0 0  13.44999999997473 0 0  13.52499999997459 0 0  13.59999999997444 0 0  13.6749999999743 0 0  13.74999999997415 0 0  13.82499999997401 0 0  13.89999999997386 0 0  13.97499999997372 0 0  14.04999999997358 0 0  14.12499999997343 0 0  14.19999999997329 0 0  14.27499999997314 0 0  14.349999999973 0 0  14.42499999997285 0 0  14.49999999997271 0 0  14.57499999997257 0 0  14.64999999997242 0 0  14.72499999997228 0 0  14.79999999997213 0 0  14.87499999997199 0 0  14.94999999997185 0 0  15.0249999999717 0 0  15.09999999997156 0 0  15.17499999997142 0 0  15.24999999997127 0 0  15.32499999997113 0 0  15.39999999997098 0 0  15.47499999997084 0 0  15.54999999997069 0 0  15.62499999997055 0 0  15.69999999997041 0 0  15.77499999997026 0 0  15.84999999997012 0 0  15.92499999996997 0 0  15.99999999996983 0 0  16.07499999996969 0 0  16.14999999996954 0 0  16.2249999999694 0 0  16.29999999996926 0 0  16.37499999996911 0 0  16.44999999996897 0 0  16.52499999996882 0 0  16.59999999996868 0 0  16.67499999996853 0 0  16.74999999996839 0 0  16.82499999996825 0 0  16.8999999999681 0 0  16.97499999996796 0 0  17.04999999996781 0 0  17.12499999996767 0 0  17.19999999996763 0 0  17.27499999996763 0 0  17.34999999996764 0 0  17.42499999996764 0 0  17.49999999996764 0 0  17.57499999996794 0 0  17.64999999996824 0 0  17.72499999996854 0 0  17.79999999996884 0 0  17.87499999996919 0 0  17.94999999996964 0 0  18.02499999997008 0 0  18.09999999997053 0 0  18.17499999997098 0 0  18.24999999997143 0 0  18.32499999997188 0 0  18.39999999997232 0 0  18.47499999997277 0 0  18.54999999997322 0 0  18.62499999997367 0 0  18.69999999997412 0 0  18.77499999997456 0 0  18.84999999997501 0 0  18.92499999997546 0 0  18.99999999997591 0 0  19.07499999997636 0 0  19.14999999997681 0 0  19.22499999997725 0 0  19.2999999999777 0 0  19.37499999997815 0 0  19.4499999999786 0 0  19.52499999997904 0 0  19.5999999999795 0 0  19.67499999997995 0 0  19.74999999998039 0 0  19.82499999998084 0 0  19.89999999998129 0 0  19.97499999998174 0 0  20.04999999998218 0 0  20.12499999998263 0 0  20.19999999998308 0 0  20.27499999998353 0 0  20.34999999998398 0 0  20.42499999998443 0 0  20.49999999998487 0 0  20.57499999998532 0 0  20.64999999998576 0 0  20.72499999998622 0 0  20.79999999998667 0 0  20.87499999998711 0 0  20.94999999998756 0 0  21.024999999988 0 0  21.09999999998846 0 0  21.17499999998891 0 0  21.24999999998935 0 0  21.3249999999898 0 0  21.39999999999025 0 0  21.4749999999907 0 0  21.54999999999115 0 0  21.62499999999159 0 0  21.69999999999204 0 0  21.77499999999249 0 0  21.84999999999294 0 0  21.92499999999339 0 0  21.99999999999383 0 0  22.07499999999428 0 0  22.14999999999473 0 0  22.22499999999518 0 0  22.29999999999563 0 0  22.37499999999607 0 0  22.44999999999652 0 0  22.52499999999697 0 0  22.59999999999742 0 0  22.67499999999787 0 0  22.74999999999831 0 0  22.82499999999876 0 0  22.89999999999922 0 0  22.97499999999966 0 0  23.05000000000011 0 0  23.12500000000055 0 0  23.200000000001 0 0  23.27500000000145 0 0  23.3500000000019 0 0  23.42500000000235 0 0  23.5000000000028 0 0  23.57500000000324 0 0  23.65000000000369 0 0  23.72500000000414 0 0  23.80000000000459 0 0  23.87500000000503 0 0  23.95000000000548 0 0  24.02500000000594 0 0  24.10000000000638 0 0  24.17500000000683 0 0  24.25000000000728 0 0  24.32500000000773 0 0  24.40000000000817 0 0  24.47500000000862 0 0  24.55000000000907 0 0  24.62500000000952 0 0  24.70000000000997 0 0  24.77500000001042 0 0  24.85000000001086 0 0  24.92500000001131 0 0  25.00000000001176 0 0  25.07500000001221 0 0  25.15000000001266 0 0  25.2250000000131 0 0  25.30000000001355 0 0  25.37500000001399 0 0  25.45000000001445 0 0  25.5250000000149 0 0  25.60000000001534 0 0  25.67500000001579 0 0  25.75000000001624 0 0  25.82500000001669 0 0  25.90000000001714 0 0  25.97500000001758 0 0  26.05000000001803 0 0  26.12500000001848 0 0  26.2000000000189
[...]
<PointData  Vectors="f_122-0"> 
<DataArray  type="Float64"  Name="f_122-0"  NumberOfComponents="3" format="ascii">-2.6410873762449232e-07 0.0000000000000000e+00 0.0000000000000000e+00  -6.1829325297459914e-01 0.0000000000000000e+00 0.0000000000000000e+00  1.4190086133940248e-05 1.2882614711971729e-05 0.0000000000000000e+00  0.0000000000000000e+00 0.0000000000000000e+00 0.0000000000000000e+00  0.0000000000000000e+00 0.0000000000000000e+00 0.0000000000000000e+00  -5.1422230558574086e-08 0.0000000000000000e+00 0.0000000000000000e+00  -2.7965828903568528e-07 0.0000000000000000e+00 0.0000000000000000e+00  2.2426525537779539e-06 5.3780018903969932e-06 0.0000000000000000e+00  -2.5899111394792066e-06 5.5639165059674881e-06 0.0000000000000000e+00  0.0000000000000000e+00 0.0000000000000000e+00 0.0000000000000000e+00  0.0000000000000000e+00 0.0000000000000000e+00 0.0000000000000000e+00  -9.6737810768461550e-08 5.2351561831793660e-08 0.0000000000000000e+00  -5.4407790189388890e-07 4.5033621337263095e-08 0.0000000000000000e+00  -1.7085836816412194e-07 1.5380542239356797e-09 0.0000000000000000e+00  0.0000000000000000e+00 0.0000000000000000e+00 0.0000000000000000e+00  0.0000000000000000e+00 0.0000000000000000e+00 0.0000000000000000e+00  -3.6614598293255939e-02 -3.8851779464603123e-02 0.0000000000000000e+00  -2.6410389084435835e-07 0.0000000000000000e+00 0.0000000000000000e+00  -2.6399246923941808e-07 0.0000000000000000e+00 0.0000000000000000e+00  -2.6376045272621055e-07 0.0000000000000000e+00 0.0000000000000000e+00  -2.6343057428354247e-07 0.0000000000000000e+00 0.0000000000000000e+00  -2.6300325215056318e-07 0.0000000000000000e+00 0.0000000000000000e+00  -2.6241150081971330e-07 0.0000000000000000e+00 0.0000000000000000e+00  -2.6173632345033191e-07 0.0000000000000000e+00 0.0000000000000000e+00  -2.6090584507649421e-07 0.0000000000000000e+00 0.0000000000000000e+00  -2.5996137865140966e-07 0.0000000000000000e+00 0.0000000000000000e+00  -2.5892306638365595e-07 0.0000000000000000e+00 0.0000000000000000e+00  -2.5782227439866437e-07 0.0000000000000000e+00 0.0000000000000000e+00  -2.5665200624651865e-07 0.0000000000000000e+00 0.0000000000000000e+00  -2.5546796278659097e-07 0.0000000000000000e+00 0.0000000000000000e+00  -2.5428137358010494e-07 0.0000000000000000e+00 0.0000000000000000e+00  -2.5312946482277218e-07 0.0000000000000000e+00 0.0000000000000000e+00  -2.5202550334191264e-07 0.0000000000000000e+00 0.0000000000000000e+00  -2.5102738225880978e-07 0.0000000000000000e+00 0.0000000000000000e+00  -2.5014118645379404e-07 0.0000000000000000e+00 0.0000000000000000e+00  -2.4939647216989656e-07 0.0000000000000000e+00 0.0000000000000000e+00  -2.4882820757526274e-07 0.0000000000000000e+00 0.0000000000000000e+00  -2.4845669261479680e-07 0.0000000000000000e+00 0.0000000000000000e+00  -2.4826925888646884e-07 0.0000000000000000e+00 0.0000000000000000e+00  -2.4834147965289250e-07 0.0000000000000000e+00 0.0000000000000000e+00  -2.4864257349158891e-07 0.0000000000000000e+00 0.0000000000000000e+00  -2.4915904147402659e-07 0.0000000000000000e+00 0.0000000000000000e+00  -2.4995996710754024e-07 0.0000000000000000e+00 0.0000000000000000e+00  -2.5100843168886944e-07 0.0000000000000000e+00 0.0000000000000000e+00  -2.5230045048419918e-07 0.0000000000000000e+00 0.0000000000000000e+00  -2.5383262974165606e-07 0.0000000000000000e+00 0.0000000000000000e+00  -2.5558584187840120e-07 0.0000000000000000e+00 0.0000000000000000e+00  -2.5755647260354840e-07 0.0000000000000000e+00 0.0000000000000000e+00  -2.5974234180031976e-07 0.0000000000000000e+00 0.0000000000000000e+00  -2.6205435512787351e-07 0.0000000000000000e+00 0.0000000000000000e+00  -2.6456475513727378e-07 0.0000000000000000e+00 0.0000000000000000e+00  -2.6715095012497443e-07 0.0000000000000000e+00 0.0000000000000000e+00  -2.6984191276500542e-07 0.0000000000000000e+00 0.0000000000000000e+00  -2.7258234467811621e-07 0.0000000000000000e+00 0.0000000000000000e+00  -2.7533526782669692e-07 0.0000000000000000e+00 0.0000000000000000e+00  -2.7807447269504387e-07 0.0000000000000000e+00 0.0000000000000000e+00  -2.8075459876488327e-07 0.0000000000000000e+00 0.0000000000000000e+00  -2.8334479404971392e-07 0.0000000000000000e+00 0.0000000000000000e+00  -2.8580681167153393e-07 0.0000000000000000e+00 0.0000000000000000e+00  -2.8810068473094172e-07 0.0000000000000000e+00 0.0000000000000000e+00  -2.9020157405765625e-07 0.0000000000000000e+00 0.0000000000000000e+00  -2.9206574675008422e-07 0.0000000000000000e+00 0.0000000000000000e+00  -2.9366175036044025e-07 0.0000000000000000e+00 0.0000000000000000e+00  -2.9500788086068297e-07 0.0000000000000000e+00 0.0000000000000000e+00  -2.9598069237433642e-07 0.0000000000000000e+00 0.0000000000000000e+00  -2.9668842074625453e-07 0.0000000000000000e+00 0.0000000000000000e+00  -2.9704441209027342e-07 0.0000000000000000e+00 0.0000000000000000e+00  -2.9705835922584637e-07 0.0000000000000000e+00 0.0000000000000000e+00  -2.9673716169050186e-07 0.0000000000000000e+00 0.0000000000000000e+00  -2.9608997719195241e-07 0.0000000000000000e+00 0.0000000000000000e+00  -2.9515667290224367e-07 0.0000000000000000e+00 0.0000000000000000e+00  -2.9397059350302509e-07 0.0000000000000000e+00 0.0000000000000000e+00  -2.9255104125482184e-07 0.0000000000000000e+00 0.0000000000000000e+00  -2.9101702377356721e-07 0.0000000000000000e+00 0.0000000000000000e+00  -2.8930537071718711e-07 0.0000000000000000e+00 0.0000000000000000e+00  -2.8778262424674185e-07 0.0000000000000000e+00 0.0000000000000000e+00  -2.8630326990300209e-07 0.0000000000000000e+00 0.0000000000000000e+00  -2.8505626562886070e-07 0.0000000000000000e+00 0.0000000000000000e+00  -2.8433674455542016e-07 0.0000000000000000e+00 0.0000000000000000e+00  -2.8418579252461789e-07 0.0000000000000000e+00 0.0000000000000000e+00  -2.8452951389667522e-07 0.0000000000000000e+00 0.0000000000000000e+00  -2.8591144682353128e-07 0.0000000000000000e+00 0.0000000000000000e+00  -2.8812816655762184e-07 0.0000000000000000e+00 0.0000000000000000e+00  -2.9101096535025359e-07 0.0000000000000000e+00 0.0000000000000000e+00  -2.9475737876613483e-07 0.0000000000000000e+00 0.0000000000000000e+00  -2.9950091593166238e-07 0.0000000000000000e+00 0.0000000000000000e+00  -3.0406782043143203e-07 0.0000000000000000e+00 0.0000000000000000e+00  -3.0943324195869390e-07 0.0000000000000000e+00 0.0000000000000000e+00  -3.1394693258356252e-07 0.0000000000000000e+00 0.0000000000000000e+00  -3.1833718049120554e-07 0.0000000000000000e+00 0.0000000000000000e+00  -3.2140110115612615e-07 0.0000000000000000e+00 0.0000000000000000e+00  -3.2284103024622912e-07 0.0000000000000000e+00 0.0000000000000000e+00  -3.2252879588847005e-07 0.0000000000000000e+00 0.0000000000000000e+00  -3.1930063198967845e-07 0.0000000000000000e+00 0.0000000000000000e+00  -3.1339797879819055e-07 0.0000000000000000e+00 0.0000000000000000e+00  -3.0385767354501393e-07 0.0000000000000000e+00 0.0000000000000000e+00  -2.9036910583418585e-07 0.0000000000000000e+00 0.0000000000000000e+00  -2.7275881425960501e-07 0.0000000000000000e+00 0.0000000000000000e+00  -2.5019587526209356e-07 0.0000000000000000e+00 0.0000000000000000e+00  -2.2211710669526814e-07 0.0000000000000000e+00 0.0000000000000000e+00  -1.8911660368141868e-07 0.0000000000000000e+00 0.0000000000000000e+00  -1.4914805626049844e-07 0.0000000000000000e+00 0.0000000000000000e+00  -1.0410019887523998e-07 0.0000000000000000e+00 0.0000000000000000e+00  -5.0798130719960354e-08 0.0000000000000000e+00 0.0000000000000000e+00  8.6272528657800009e-09 0.0000000000000000e+00 0.0000000000000000e+00  7.5589716073572480e-08 0.0000000000000000e+00 0.0000000000000000e+00  1.5054792647719523e-07 0.0000000000000000e+00 0.0000000000000000e+00  2.3346053609230045e-07 0.0000000000000000e+00 0.0000000000000000e+00  3.2356681673906570e-07 0.0000000000000000e+00 0.0000000000000000e+00  4.2282381412308076e-07 0.0000000000000000e+00 0.0000000000000000e+00  5.2971667478924806e-07 0.0000000000000000e+00 0.0000000000000000e+00  6.4424971303680743e-07 0.0000000000000000e+00 0.0000000000000000e+00  7.6661933056485252e-07 0.0000000000000000e+00 0.0000000000000000e+00  8.9784162619299510e-07 0.0000000000000000e+00 0.0000000000000000e+00  1.0335572708253347e-06 0.0000000000000000e+00 0.0000000000000000e+00  1.1784853657049963e-06 0.0000000000000000e+00 0.0000000000000000e+00  1.3257887883916605e-06 0.0000000000000000e+00 0.0000000000000000e+00  1.4809506063340040e-06 0.0000000000000000e+00 0.0000000000000000e+00  1.6378318358305338e-06 0.0000000000000000e+00 0.0000000000000000e+00  1.7969111219105597e-06 0.0000000000000000e+00 0.0000000000000000e+00  1.9577898250922842e-06 0.0000000000000000e+00 0.0000000000000000e+00  2.1166087923095849e-06 0.0000000000000000e+00 0.0000000000000000e+00  2.2717784160358791e-06 0.0000000000000000e+00 0.0000000000000000e+00  2.4225370041907955e-06 0.0000000000000000e+00 0.0000000000000000e+00  2.5641912368721842e-06 0.0000000000000000e+00 0.0000000000000000e+00  2.6955380139356241e-06 0.0000000000000000e+00 0.0000000000000000e+00  2.8119537528299452e-06 0.0000000000000000e+00 0.0000000000000000e+00  2.9121046167634234e-06 0.0000000000000000e+00 0.0000000000000000e+00  2.9907313378661840e-06 0.0000000000000000e+00 0.0000000000000000e+00  3.0448220477123959e-06 0.0000000000000000e+00 0.0000000000000000e+00  3.0715570027268441e-06 0.0000000000000000e+00 0.0000000000000000e+00  3.0633956396176117e-06 0.0000000000000000e+00 0.0000000000000000e+00  3.0195830336126115e-06 0.0000000000000000e+00 0.0000000000000000e+00  2.9352683268810326e-06 0.0000000000000000e+00 0.0000000000000000e+00  2.8029774477931588e-06 0.0000000000000000e+00 0.0000000000000000e+00  2.6205290361715471e-06 0.0000000000000000e+00 0.0000000000000000e+00  2.3854004927183836e-06 0.0000000000000000e+00 0.0000000000000000e+00  2.0881560696330508e-06 0.0000000000000000e+00 0.0000000000000000e+00  1.7281363079356526e-06 0.0000000000000000e+00 0.0000000000000000e+00  1.3046201625176528e-06 0.0000000000000000e+00 0.0000000000000000e+00  8.1010808992290253e-07 0.0000000000000000e+00 0.0000000000000000e+00  2.3441631698187615e-07 0.0000000000000000e+00 0.0000000000000000e+00  -4.0432826240234612e-07 0.0000000000000000e+00 0.0000000000000000e+00  -1.1358148588148754e-06 0.0000000000000000e+00 0.0000000000000000e+00  -1.9255818163743635e-06 0.0000000000000000e+00 0.0000000000000000e+00  -2.8134927152739268e-06 0.0000000000000000e+00 0.0000000000000000e+00  -3.7650020267767410e-06 0.0000000000000000e+00 0.0000000000000000e+00  -4.8046093813465921e-06 0.0000000000000000e+00 0.0000000000000000e+00  -5.9146091074088215e-06 0.0000000000000000e+00 0.0000000000000000e+00  -7.0873000088082955e-06 0.0000000000000000e+00 0.0000000000000000e+00  -8.3333604124946144e-06 0.0000000000000000e+00 0.0000000000000000e+00  -9.6235790492348638e-06 0.0000000000000000e+00 0.0000000000000000e+00  -1.0948195393073272e-05 0.0000000000000000e+00 0.0000000000000000e+00  -1.2339296276524512e-05 0.0000000000000000e+00 0.0000000000000000e+00  -1.3726745896750498e-05 0.0000000000000000e+00 0.0000000000000000e+00  -1.5126700480476963e-05 0.0000000000000000e+00 0.0000000000000000e+00  -1.6532763633123400e-05 0.0000000000000000e+00 0.0000000000000000e+00  -1.7896802601939295e-05 0.0000000000000000e+00 0.0000000000000000e+00  -1.9225854991277931e-05 0.0000000000000000e+00 0.0000000000000000e+00  -2.0485649434958567e-05 0.0000000000000000e+00 0.0000000000000000e+00  -2.1657768418269522e-05 0.0000000000000000e+00 0.0000000000000000e+00  -2.2711477757910869e-05 0.0000000000000000e+00 0.0000000000000000e+00  -2.3639072514669940e-05 0.0000000000000000e+00 0.0000000000000000e+00  -2.4390531487052375e-05 0.0000000000000000e+00 0.0000000000000000e+00  -2.4956287619915467e-05 0.0000000000000000e+00 0.0000000000000000e+00  -2.5305895718518450e-05 0.0000000000000000e+00 0.0000000000000000e+00  -2.5349616879751576e-05 0.0000000000000000e+00 0.0000000000000000e+00  -2.5191044312701627e-05 0.0000000000000000e+00 0.0000000000000000e+00  -2.4713081883970204e-05 0.0000000000000000e+00 0.0000000000000000e+00  -2.3874383389977838e-05 0.0000000000000000e+00 0.0000000000000000e+00  -2.2671394884040475e-05 0.0000000000000000e+00 0.0000000000000000e+00  -2.1050178705424590e-05 0.0000000000000000e+00 0.0000000000000000e+00  -1.9104723406944111e-05 0.0000000000000000e+00 0.0000000000000000e+00  -1.6713545432809114e-05 0.0000000000000000e+00 0.0000000000000000e+00  -1.3821090460616047e-05 0.0000000000000000e+00 0.0000000000000000e+00  -1.0545843754902819e-05 0.0000000000000000e+00 0.0000000000000000e+00  -6.7294766861323845e-06 0.0000000000000000e+00 0.0000000000000000e+00  -2.5280418117401873e-06 0.0000000000000000e+00 0.0000000000000000e+00  2.1351992294051456e-06 0.0000000000000000e+00 0.0000000000000000e+00  7.3189500364530832e-06 0.0000000000000000e+00 0.0000000000000000e+00  1.2888762374104860e-05 0.0000000000000000e+00 0.0000000000000000e+00  1.8982526472311329e-05 0.0000000000000000e+00 0.0000000000000000e+00  2.5307450285207070e-05 0.0000000000000000e+00 0.0000000000000000e+00  3.2054195193703284e-05 0.0000000000000000e+00 0.0000000000000000e+00  3.9086899720700027e-05 0.0000000000000000e+00 0.0000000000000000e+00  4.6425854644567278e-05 0.0000000000000000e+00 0.0000000000000000e+00  5.3889611023489521e-05 0.0000000000000000e+00 0.0000000000000000e+00  6.1518342830504277e-05 0.0000000000000000e+00 0.0000000000000000e+00  6.9128289926931278e-05 0.0000000000000000e+00 0.0000000000000000e+00  7.6720429554540589e-05 0.0000000000000000e+00 0.0000000000000000e+00  8.4129284595803718e-05 0.0000000000000000e+00 0.0000000000000000e+00  9.1322764430006658e-05 0.0000000000000000e+00 0.0000000000000000e+00  9.8099285715896794e-05 0.0000000000000000e+00 0.0000000000000000e+00  1.0445237347511946e-04 0.0000000000000000e+00 0.0000000000000000e+00  1.1015351312432747e-04 0.0000000000000000e+00 0.0000000000000000e+00  1.1517642930499125e-04 0.0000000000000000e+00 0.0000000000000000e+00  1.1929255984509449e-04 0.0000000000000000e+00 0.0000000000000000e+00  1.2244228530491988e-04 0.0000000000000000e+00 0.0000000000000000e+00  1.2446259116920806e-04 0.0000000000000000e+00 0.0000000000000000e+00  1.2526134660196248e-04 0.0000000000000000e+00 0.0000000000000000e+00  1.2462393666833716e-04 0.0000000000000000e+00 0.0000000000000000e+00  1.2264262036716482e-04 0.0000000000000000e+00 0.0000000000000000e+00  1.1887005852410970e-04 0.0000000000000000e+00 0.0000000000000000e+00  1.1352092495794174e-04 0.0000000000000000e+00 0.0000000000000000e+00  1.0640537798359283e-04 0.0000000000000000e+00 0.0000000000000000e+00  9.7342814832239975e-05 0.0000000000000000e+00 0.0000000000000000e+00  8.6220703260126414e-05 0.0000000000000000e+00 0.0000000000000000e+00  7.3421727724226271e-05 0.0000000000000000e+00 0.0000000000000000e+00  5.8207607001216652e-05 0.0000000000000000e+00 0.0000000000000000e+00  4.1581202523143188e-05 0.0000000000000000e+00 0.0000000000000000e+00  2.2275125961401112e-05 0.0000000000000000e+00 0.0000000000000000e+00  1.6736517216994324e-06 0.0000000000000000e+00 0.0000000000000000e+00  -2.1510746096543832e-05 0.0000000000000000e+00 0.0000000000000000e+00  -4.5801764530157373e-05 0.0000000000000000e+00 0.0000000000000000e+00  -7.2123283006274286e-05 0.0000000000000000e+00 0.0000000000000000e+00  -9.9418052830816100e-05 0.0000000000000000e+00 0.0000000000000000e+00  -1.2856530819854860e-04 0.0000000000000000e+00 0.0000000000000000e+00  -1.5812140625971101e-04 0.0000000000000000e+00 0.0000000000000000e+00  -1.8911691278549866e-04 0.0000000000000000e+00 0.0000000000000000e+00  -2.2003060065942830e-04 0.0000000000000000e+00 0.0000000000000000e+00  -2.5142001106989286e-04 0.0000000000000000e+00 0.0000000000000000e+00  -2.8235302121072491e-04 0.0000000000000000e+00 0.0000000000000000e+00  -3.1294684841700216e-04 0.0000000000000000e+00 0.0000000000000000e+00  -3.4228587874094574e-04 0.0000000000000000e+00 0.0000000000000000e+00  -3.7023172052072728e-04 0.0000000000000000e+00 0.0000000000000000e+00  -3.9661316150643673e-04 0.0000000000000000e+00 0.0000000000000000e+00  -4.2062656062513812e-04 0.0000000000000000e+00 0.0000000000000000e+00  -4.4155079233763151e-04 0.0000000000000000e+00 0.0000000000000000e+00  -4.5962607574651207e-04 0.0000000000000000e+00 0.0000000000000000e+00  -4.7351721155917254e-04 0.0000000000000000e+00 0.0000000000000000e+00  -4.8385841719219847e-04 0.0000000000000000e+00 0.0000000000000000e+00  -4.8903239391056088e-04 0.0000000000000000e+00 0.0000000000000000e+00  -4.8963957770414661e-04 0.0000000000000000e+00 0.0000000000000000e+00  -4.8421349017877950e-04 0.0000000000000000e+00 0.0000000000000000e+00  -4.7362851756484756e-04 0.0000000000000000e+00 0.0000000000000000e+00  -4.5697692770955062e-04 0.0000000000000000e+00 0.0000000000000000e+00  -4.3312579724110942e-04 0.0000000000000000e+00 0.0000000000000000e+00  -4.0339168996220267e-04 0.0000000000000000e+00 0.0000000000000000e+00  -3.6637221399266079e-04 0.0000000000000000e+00 0.0000000000000000e+00  -3.2300891447552391e-04 0.0000000000000000e+00 0.0000000000000000e+00  -2.7194663042650816e-04 0.0000000000000000e+00 0.0000000000000000e+00  -2.1490105722110341e-04 0.0000000000000000e+00 0.0000000000000000e+00  -1.5056022777562128e-04 0.0000000000000000e+00 0.0000000000000000e+00  -8.0084868099158165e-05 0.0000000000000000e+00 0.0000000000000000e+00  -3.0252177497766286e-06 0.0000000000000000e+00 0.0000000000000000e+00  7.9221751385497353e-05 0.0000000000000000e+00 0.0000000000000000e+00  1.6669684210381813e-04 0.0000000000000000e+00 0.0000000000000000e+00  2.5918171707571541e-04 0.0000000000000000e+00 0.0000000000000000e+00  3.5530054768059187e-04 0.0000000000000000e+00 0.0000000000000000e+00  4.5454879286176424e-04 0.0000000000000000e+00 0.0000000000000000e+00  5.5589571941501502e-04 0.0000000000000000e+00 0.0000000000000000e+00  6.5842232339766648e-04 0.0000000000000000e+00 0.0000000000000000e+00  7.6110136384027673e-04 0.0000000000000000e+00 0.0000000000000000e+00  8.6242857242489908e-04 0.0000000000000000e+00 0.0000000000000000e+00  9.6192709096958235e-04 0.0000000000000000e+00 0.0000000000000000e+00  1.0571508828498540e-03 0.0000000000000000e+00 0.0000000000000000e+00  1.1480998123567826e-03 0.0000000000000000e+00 0.0000000000000000e+00  1.2329035728292752e-03 0.0000000000000000e+00 0.0000000000000000e+00  1.3088561524061122e-03 0.0000000000000000e+00 0.0000000000000000e+00  1.3770148207959178e-03 0.0000000000000000e+00 0.0000000000000000e+00  1.4337159202869145e-03 0.0000000000000000e+00 0.0000000000000000e+00  1.4796243763543985e-03 0.0000000000000000e+00 0.0000000000000000e+00  1.5108204560896877e-03 0.0000000000000000e+00 0.0000000000000000e+00  1.5294156289680338e-03 0.0000000000000000e+00 0.0000000000000000e+00  1.5308946189262870e-03 0.0000000000000000e+00 0.0000000000000000e+00  1.5170687801765491e-03 0.0000000000000000e+00 0.0000000000000000e+00  1.4838346366291574e-03 0.0000000000000000e+00 0.0000000000000000e+00  1.4340221694274999e-03 0.0000000000000000e+00 0.0000000000000000e+00  1.3654392350413759e-03 0.0000000000000000e+00 0.0000000000000000e+00  1.2747537458675277e-03 0.0000000000000000e+00 0.0000000000000000e+00  1.1666253217270789e-03 0.0000000000000000e+00 0.0000000000000000e+00  1.0366059226307410e-03 0.0000000000000000e+00 0.0000000000000000e+00  8.8924035344678781e-04 0.0000000000000000e+00 0.0000000000000000e+00  7.1968737568400918e-04 0.0000000000000000e+00 0.0000000000000000e+00  5.3420216921857319e-04 0.0000000000000000e+00 0.0000000000000000e+00  3.2751189177977720e-04 0.0000000000000000e+00 0.0000000000000000e+00  1.0699922403305105e-04 0.0000000000000000e+00 0.0000000000000000e+00  -1.3124980533545504e-04 0.0000000000000000e+00 0.0000000000000000e+00  -3.8128187877194033e-04 0.0000000000000000e+00 0.0000000000000000e+00  -6.4374281336079017e-04 0.0000000000000000e+00 0.0000000000000000e+00  -9.1616376012918421e-04 0.0000000000000000e+00 0.0000000000000000e+00  -1.1956639303551237e-03 0.0000000000000000e+00