<?xml version="1.0"?>
<VTKFile type="UnstructuredGrid"  version="0.1"  >
<UnstructuredGrid>
<Piece  NumberOfPoints="13748" NumberOfCells="26154">
<Points>
<DataArray  type="Float64"  NumberOfComponents="3"  format="ascii">0 0 0  50 0 0  50 1 0  0 1 0  0 5 0  70 5 0  70 10 0  0 10 0  70 0 0  120 0 0  120 60 0  0 60 0  0.04999999999980179 0 0  0.09999999999960357 0 0  0.1499999999994053 0 0  0.1999999999992071 0 0  0.2499999999990089 0 0  0.2999999999988107 0 0  0.3499999999986125 0 0  0.3999999999984147 0 0  0.4499999999982193 0 0  0.4999999999980239 0 0  0.5499999999978284 0 0  0.599999999997633 0 0  0.6499999999974374 0 0  0.6999999999972421 0 0  0.7499999999970466 0 0  0.7999999999968522 0 0  0.8499999999966593 0 0  0.8999999999964666 0 0  0.9499999999962742 0 0  0.9999999999960815 0 0  1.049999999995889 0 0  1.099999999995696 0 0  1.149999999995504 0 0  1.199999999995307 0 0  1.249999999995109 0 0  1.299999999994911 0 0  1.349999999994713 0 0  1.399999999994515 0 0  1.449999999994316 0 0  1.499999999994118 0 0  1.54999999999392 0 0  1.599999999993713 0 0  1.649999999993504 0 0  1.699999999993294 0 0  1.749999999993085 0 0  1.799999999992876 0 0  1.849999999992667 0 0  1.899999999992457 0 0  1.949999999992248 0 0  1.999999999992033 0 0  2.049999999991818 0 0  2.099999999991603 0 0  2.149999999991389 0 0  2.199999999991174 0 0  2.249999999990959 0 0  2.299999999990744 0 0  2.349999999990529 0 0  2.399999999990314 0 0  2.449999999990099 0 0  2.499999999989885 0 0  2.549999999989669 0 0  2.599999999989454 0 0  2.64999999998924 0 0  2.699999999989025 0 0  2.749999999988813 0 0  2.79999999998861 0 0  2.849999999988406 0 0  2.899999999988202 0 0  2.949999999987998 0 0  2.999999999987795 0 0  3.049999999987591 0 0  3.099999999987387 0 0  3.149999999987194 0 0  3.199999999987012 0 0  3.249999999986831 0 0  3.29999999998665 0 0  3.349999999986468 0 0  3.399999999986286 0 0  3.449999999986105 0 0  3.499999999985923 0 0  3.549999999985749 0 0  3.599999999985579 0 0  3.649999999985408 0 0  3.699999999985239 0 0  3.749999999985068 0 0  3.799999999984897 0 0  3.849999999984727 0 0  3.899999999984556 0 0  3.949999999984386 0 0  3.999999999984215 0 0  4.049999999984045 0 0  4.099999999983874 0 0  4.149999999983704 0 0  4.199999999983533 0 0  4.249999999983363 0 0  4.299999999983192 0 0  4.349999999983021 0 0  4.399999999982852 0 0  4.449999999982682 0 0  4.499999999982511 0 0  4.54999999998234 0 0  4.599999999982169 0 0  4.649999999982 0 0  4.699999999981829 0 0  4.749999999981658 0 0  4.799999999981488 0 0  4.849999999981318 0 0  4.899999999981147 0 0  4.949999999980976 0 0  4.999999999980806 0 0  5.049999999980635 0 0  5.099999999980465 0 0  5.149999999980294 0 0  5.199999999980124 0 0  5.249999999979954 0 0  5.299999999979784 0 0  5.349999999979613 0 0  5.399999999979443 0 0  5.449999999979272 0 0  5.499999999979101 0 0  5.549999999978931 0 0  5.599999999978761 0 0  5.64999999997859 0 0  5.699999999978419 0 0  5.749999999978249 0 0  5.799999999978079 0 0  5.849999999977908 0 0  5.89999999997772 0 0  5.949999999977527 0 0  5.999999999977335 0 0  6.049999999977143 0 0  6.09999999997695 0 0  6.149999999976757 0 0  6.199999999976565 0 0  6.249999999976372 0 0  6.299999999976134 0 0  6.349999999975897 0 0  6.39999999997566 0 0  6.449999999975424 0 0  6.499999999975187 0 0  6.54999999997495 0 0  6.599999999974712 0 0  6.649999999974472 0 0  6.699999999974211 0 0  6.749999999973953 0 0  6.799999999973692 0 0  6.849999999973434 0 0  6.899999999973174 0 0  6.949999999972915 0 0  6.999999999972656 0 0  7.049999999972396 0 0  7.099999999972137 0 0  7.149999999971877 0 0  7.199999999971618 0 0  7.24999999997136 0 0  7.2999999999711 0 0  7.349999999970841 0 0  7.399999999970581 0 0  7.449999999970322 0 0  7.499999999970062 0 0  7.549999999969803 0 0  7.599999999969545 0 0  7.649999999969284 0 0  7.699999999969026 0 0  7.749999999968765 0 0  7.799999999968507 0 0  7.849999999968246 0 0  7.899999999967989 0 0  7.949999999967729 0 0  7.99999999996747 0 0  8.049999999967211 0 0  8.099999999966951 0 0  8.149999999966692 0 0  8.199999999966433 0 0  8.249999999966173 0 0  8.299999999965914 0 0  8.349999999965654 0 0  8.399999999965395 0 0  8.449999999965135 0 0  8.499999999964876 0 0  8.549999999964617 0 0  8.599999999964357 0 0  8.649999999964098 0 0  8.699999999963838 0 0  8.749999999963579 0 0  8.799999999963322 0 0  8.84999999996306 0 0  8.899999999962803 0 0  8.949999999962541 0 0  8.999999999962284 0 0  9.049999999962024 0 0  9.099999999961765 0 0  9.149999999961505 0 0  9.199999999961246 0 0  9.249999999960986 0 0  9.299999999960727 0 0  9.349999999960467 0 0  9.399999999960208 0 0  9.44999999995995 0 0  9.499999999959691 0 0  9.54999999995943 0 0  9.599999999959172 0 0  9.649999999958911 0 0  9.699999999958653 0 0  9.749999999958394 0 0  9.799999999958134 0 0  9.849999999957875 0 0  9.899999999957615 0 0  9.949999999957356 0 0  9.999999999957096 0 0  10.04999999995684 0 0  10.09999999995658 0 0  10.14999999995632 0 0  10.19999999995606 0 0  10.2499999999558 0 0  10.29999999995554 0 0  10.34999999995528 0 0  10.39999999995502 0 0  10.44999999995476 0 0  10.4999999999545 0 0  10.54999999995425 0 0  10.59999999995398 0 0  10.64999999995373 0 0  10.69999999995347 0 0  10.74999999995321 0 0  10.79999999995295 0 0  10.84999999995269 0 0  10.89999999995243 0 0  10.94999999995217 0 0  10.99999999995191 0 0  11.04999999995165 0 0  11.09999999995139 0 0  11.14999999995113 0 0  11.19999999995087 0 0  11.24999999995062 0 0  11.29999999995036 0 0  11.3499999999501 0 0  11.39999999994984 0 0  11.44999999994958 0 0  11.49999999994932 0 0  11.54999999994906 0 0  11.5999999999488 0 0  11.64999999994854 0 0  11.69999999994828 0 0  11.74999999994802 0 0  11.79999999994776 0 0  11.8499999999475 0 0  11.89999999994724 0 0  11.94999999994698 0 0  11.99999999994673 0 0  12.04999999994646 0 0  12.09999999994621 0 0  12.14999999994595 0 0  12.19999999994569 0 0  12.24999999994543 0 0  12.29999999994517 0 0  12.34999999994491 0 0  12.39999999994465 0 0  12.44999999994439 0 0  12.49999999994413 0 0  12.54999999994387 0 0  12.59999999994361 0 0  12.64999999994335 0 0  12.6999999999431 0 0  12.74999999994284 0 0  12.79999999994258 0 0  12.84999999994232 0 0  12.89999999994206 0 0  12.9499999999418 0 0  12.99999999994154 0 0  13.04999999994128 0 0  13.09999999994102 0 0  13.14999999994076 0 0  13.1999999999405 0 0  13.24999999994024 0 0  13.29999999993998 0 0  13.34999999993972 0 0  13.39999999993946 0 0  13.44999999993921 0 0  13.49999999993895 0 0  13.54999999993869 0 0  13.59999999993843 0 0  13.64999999993817 0 0  13.69999999993791 0 0  13.74999999993765 0 0  13.79999999993739 0 0  13.84999999993713 0 0  13.89999999993687 0 0  13.94999999993661 0 0  13.99999999993635 0 0  14.04999999993609 0 0  14.09999999993584 0 0  14.14999999993558 0 0  14.19999999993532 0 0  14.24999999993506 0 0  14.2999999999348 0 0  14.34999999993454 0 0  14.39999999993428 0 0  14.44999999993402 0 0  14.49999999993376 0 0  14.5499999999335 0 0  14.59999999993324 0 0  14.64999999993298 0 0  14.69999999993272 0 0  14.74999999993246 0 0  14.79999999993221 0 0  14.84999999993195 0 0  14.89999999993169 0 0  14.94999999993142 0 0  14.99999999993117 0 0  15.04999999993091 0 0  15.09999999993065 0 0  15.14999999993039 0 0  15.19999999993013 0 0  15.24999999992987 0 0  15.29999999992961 0 0  15.34999999992935 0 0  15.39999999992909 0 0  15.44999999992883 0 0  15.49999999992857 0 0  15.54999999992832 0 0  15.59999999992806 0 0  15.64999999992784 0 0  15.69999999992767 0 0  15.7499999999275 0 0  15.79999999992733 0 0  15.84999999992716 0 0  15.89999999992699 0 0  15.94999999992682 0 0  15.99999999992665 0 0  16.04999999992654 0 0  16.09999999992646 0 0  16.14999999992637 0 0  16.19999999992629 0 0  16.24999999992621 0 0  16.29999999992613 0 0  16.34999999992604 0 0  16.39999999992596 0 0  16.44999999992588 0 0  16.4999999999258 0 0  16.54999999992572 0 0  16.59999999992564 0 0  16.64999999992556 0 0  16.69999999992547 0 0  16.74999999992539 0 0  16.79999999992531 0 0  16.84999999992523 0 0  16.89999999992515 0 0  16.94999999992507 0 0  16.99999999992498 0 0  17.0499999999249 0 0  17.09999999992482 0 0  17.14999999992474 0 0  17.19999999992466 0 0  17.24999999992458 0 0  17.29999999992449 0 0  17.34999999992441 0 0  17.39999999992433 0 0  17.44999999992425 0 0  17.49999999992416 0 0  17.54999999992408 0 0  17.59999999992401 0 0  17.64999999992392 0 0  17.69999999992384 0 0  17.74999999992376 0 0  17.79999999992368 0 0  17.84999999992359 0 0  17.89999999992351 0 0  17.94999999992343 0 0  17.99999999992335 0 0  18.04999999992327 0 0  18.09999999992318 0 0  18.1499999999231 0 0  18.19999999992302 0 0  18.24999999992294 0 0  18.29999999992286 0 0  18.34999999992277 0 0  18.3999999999227 0 0  18.44999999992261 0 0  18.49999999992253 0 0  18.54999999992245 0 0  18.59999999992237 0 0  18.64999999992228 0 0  18.6999999999222 0 0  18.74999999992212 0 0  18.79999999992204 0 0  18.84999999992196 0 0  18.89999999992187 0 0  18.94999999992179 0 0  18.99999999992171 0 0  19.04999999992163 0 0  19.09999999992155 0 0  19.14999999992147 0 0  19.19999999992138 0 0  19.2499999999213 0 0  19.29999999992122 0 0  19.34999999992114 0 0  19.39999999992106 0 0  19.44999999992098 0 0  19.4999999999209 0 0  19.54999999992081 0 0  19.59999999992073 0 0  19.64999999992065 0 0  19.69999999992057 0 0  19.74999999992048 0 0  19.7999999999204 0 0  19.84999999992032 0 0  19.89999999992024 0 0  19.94999999992016 0 0  19.99999999992007 0 0  20.04999999992 0 0  20.09999999991991 0 0  20.14999999991983 0 0  20.19999999991975 0 0  20.24999999991967 0 0  20.29999999991959 0 0  20.3499999999195 0 0  20.39999999991942 0 0  20.44999999991934 0 0  20.49999999991926 0 0  20.54999999991917 0 0  20.5999999999191 0 0  20.64999999991901 0 0  20.69999999991893 0 0  20.74999999991885 0 0  20.79999999991877 0 0  20.84999999991869 0 0  20.8999999999186 0 0  20.94999999991852 0 0  20.99999999991844 0 0  21.04999999991836 0 0  21.09999999991827 0 0 
[...]
<PointData  Vectors="f_6-0"> 
<DataArray  type="Float64"  Name="f_6-0"  NumberOfComponents="3" format="ascii">1.0000000000000000e+00 0.0000000000000000e+00 0.0000000000000000e+00  9.9999999999999717e-29 0.0000000000000000e+00 0.0000000000000000e+00  9.6676907360550624e-01 1.1137298846046735e-03 8.5642927082811876e-02  1.0000000000000000e+00 0.0000000000000000e+00 1.7364817766699825e-01  1.0000000000000000e+00 0.0000000000000000e+00 3.4729635533399653e-02  9.9560099268426505e-01 1.1585032487464785e-03 3.4704925564047633e-02  9.9594442156360485e-01 1.6525139477081136e-03 1.7362131197644914e-02  1.0000000000000000e+00 0.0000000000000000e+00 1.7364817766699826e-02  9.9999999999999717e-29 0.0000000000000000e+00 0.0000000000000000e+00  1.0000000000000976e-28 0.0000000000000000e+00 0.0000000000000000e+00  1.0123833282974757e+00 0.0000000000000000e+00 0.0000000000000000e+00  1.0000000000000000e+00 0.0000000000000000e+00 2.8941362944499708e-03  9.9999999999992542e-29 0.0000000000000000e+00 0.0000000000000000e+00  9.9999999999992542e-29 0.0000000000000000e+00 0.0000000000000000e+00  9.9999999999992542e-29 0.0000000000000000e+00 0.0000000000000000e+00  9.9999999999992542e-29 0.0000000000000000e+00 0.0000000000000000e+00  9.9999999999992542e-29 0.0000000000000000e+00 0.0000000000000000e+00  9.9999999999992542e-29 0.0000000000000000e+00 0.0000000000000000e+00  9.9999999999992542e-29 0.0000000000000000e+00 0.0000000000000000e+00  9.9999999999992542e-29 0.0000000000000000e+00 0.0000000000000000e+00  9.9999999999992542e-29 0.0000000000000000e+00 0.0000000000000000e+00  9.9999999999992542e-29 0.0000000000000000e+00 0.0000000000000000e+00  9.9999999999992542e-29 0.0000000000000000e+00 0.0000000000000000e+00  9.9999999999992542e-29 0.0000000000000000e+00 0.0000000000000000e+00  9.9999999999992542e-29 0.0000000000000000e+00 0.0000000000000000e+00  9.9999999999992542e-29 0.0000000000000000e+00 0.0000000000000000e+00  9.9999999999992542e-29 0.0000000000000000e+00 0.0000000000000000e+00  9.9999999999992542e-29 0.0000000000000000e+00 0.0000000000000000e+00  9.9999999999992542e-29 0.0000000000000000e+00 0.0000000000000000e+00  9.9999999999992542e-29 0.0000000000000000e+00 0.0000000000000000e+00  9.9999999999992542e-29 0.0000000000000000e+00 0.0000000000000000e+00  9.9999999999992542e-29 0.0000000000000000e+00 0.0000000000000000e+00  9.9999999999992542e-29 0.0000000000000000e+00 0.0000000000000000e+00  9.9999999999992542e-29 0.0000000000000000e+00 0.0000000000000000e+00  9.9999999999992542e-29 0.0000000000000000e+00 0.0000000000000000e+00  9.9999999999992542e-29 0.0000000000000000e+00 0.0000000000000000e+00  9.9999999999992542e-29 0.0000000000000000e+00 0.0000000000000000e+00  9.9999999999992542e-29 0.0000000000000000e+00 0.0000000000000000e+00  9.9999999999992542e-29 0.0000000000000000e+00 0.0000000000000000e+00  9.9999999999992542e-29 0.0000000000000000e+00 0.0000000000000000e+00  9.9999999999992542e-29 0.0000000000000000e+00 0.0000000000000000e+00  9.9999999999992542e-29 0.0000000000000000e+00 0.0000000000000000e+00  9.9999999999992542e-29 0.0000000000000000e+00 0.0000000000000000e+00  9.9999999999992542e-29 0.0000000000000000e+00 0.0000000000000000e+00  9.9999999999992542e-29 0.0000000000000000e+00 0.0000000000000000e+00  9.9999999999992542e-29 0.0000000000000000e+00 0.0000000000000000e+00  9.9999999999992542e-29 0.0000000000000000e+00 0.0000000000000000e+00  9.9999999999992542e-29 0.0000000000000000e+00 0.0000000000000000e+00  9.9999999999992542e-29 0.0000000000000000e+00 0.0000000000000000e+00  9.9999999999992542e-29 0.0000000000000000e+00 0.0000000000000000e+00  9.9999999999992542e-29 0.0000000000000000e+00 0.0000000000000000e+00  9.9999999999992542e-29 0.0000000000000000e+00 0.0000000000000000e+00  9.9999999999992542e-29 0.0000000000000000e+00 0.0000000000000000e+00  9.9999999999992542e-29 0.0000000000000000e+00 0.0000000000000000e+00  9.9999999999992542e-29 0.0000000000000000e+00 0.0000000000000000e+00  9.9999999999992542e-29 0.0000000000000000e+00 0.0000000000000000e+00  9.9999999999992542e-29 0.0000000000000000e+00 0.0000000000000000e+00  9.9999999999992542e-29 0.0000000000000000e+00 0.0000000000000000e+00  9.9999999999992542e-29 0.0000000000000000e+00 0.0000000000000000e+00  9.9999999999992542e-29 0.0000000000000000e+00 0.0000000000000000e+00  9.9999999999992542e-29 0.0000000000000000e+00 0.0000000000000000e+00  9.9999999999992542e-29 0.0000000000000000e+00 0.0000000000000000e+00  9.9999999999992542e-29 0.0000000000000000e+00 0.0000000000000000e+00  9.9999999999992542e-29 0.0000000000000000e+00 0.0000000000000000e+00  9.9999999999992542e-29 0.0000000000000000e+00 0.0000000000000000e+00  9.9999999999992542e-29 0.0000000000000000e+00 0.0000000000000000e+00  9.9999999999992542e-29 0.0000000000000000e+00 0.0000000000000000e+00  9.9999999999992542e-29 0.0000000000000000e+00 0.0000000000000000e+00  9.9999999999992542e-29 0.0000000000000000e+00 0.0000000000000000e+00  9.9999999999992542e-29 0.0000000000000000e+00 0.0000000000000000e+00  9.9999999999992542e-29 0.0000000000000000e+00 0.0000000000000000e+00  9.9999999999992542e-29 0.0000000000000000e+00 0.0000000000000000e+00  9.9999999999992542e-29 0.0000000000000000e+00 0.0000000000000000e+00  9.9999999999992542e-29 0.0000000000000000e+00 0.0000000000000000e+00  9.9999999999992542e-29 0.0000000000000000e+00 0.0000000000000000e+00  9.9999999999992542e-29 0.0000000000000000e+00 0.0000000000000000e+00  9.9999999999992542e-29 0.0000000000000000e+00 0.0000000000000000e+00  9.9999999999992542e-29 0.0000000000000000e+00 0.0000000000000000e+00  9.9999999999992542e-29 0.0000000000000000e+00 0.0000000000000000e+00  9.9999999999992542e-29 0.0000000000000000e+00 0.0000000000000000e+00  9.9999999999992542e-29 0.0000000000000000e+00 0.0000000000000000e+00  9.9999999999992542e-29 0.0000000000000000e+00 0.0000000000000000e+00  9.9999999999992542e-29 0.0000000000000000e+00 0.0000000000000000e+00  9.9999999999992542e-29 0.0000000000000000e+00 0.0000000000000000e+00  9.9999999999992542e-29 0.0000000000000000e+00 0.0000000000000000e+00  9.9999999999992542e-29 0.0000000000000000e+00 0.0000000000000000e+00  9.9999999999992542e-29 0.0000000000000000e+00 0.0000000000000000e+00  9.9999999999992542e-29 0.0000000000000000e+00 0.0000000000000000e+00  9.9999999999992542e-29 0.0000000000000000e+00 0.0000000000000000e+00  9.9999999999992542e-29 0.0000000000000000e+00 0.0000000000000000e+00  9.9999999999992542e-29 0.0000000000000000e+00 0.0000000000000000e+00  9.9999999999992542e-29 0.0000000000000000e+00 0.0000000000000000e+00  9.9999999999992542e-29 0.0000000000000000e+00 0.0000000000000000e+00  9.9999999999992542e-29 0.0000000000000000e+00 0.0000000000000000e+00  9.9999999999992542e-29 0.0000000000000000e+00 0.0000000000000000e+00  9.9999999999992542e-29 0.0000000000000000e+00 0.0000000000000000e+00  9.9999999999992542e-29 0.0000000000000000e+00 0.0000000000000000e+00  9.9999999999992542e-29 0.0000000000000000e+00 0.0000000000000000e+00  9.9999999999992542e-29 0.0000000000000000e+00 0.0000000000000000e+00  9.9999999999992542e-29 0.0000000000000000e+00 0.0000000000000000e+00  9.9999999999992542e-29 0.0000000000000000e+00 0.0000000000000000e+00  9.9999999999992542e-29 0.0000000000000000e+00 0.0000000000000000e+00  9.9999999999992542e-29 0.0000000000000000e+00 0.0000000000000000e+00  9.9999999999992542e-29 0.0000000000000000e+00 0.0000000000000000e+00  9.9999999999992542e-29 0.0000000000000000e+00 0.0000000000000000e+00  9.9999999999992542e-29 0.0000000000000000e+00 0.0000000000000000e+00  9.9999999999992542e-29 0.0000000000000000e+00 0.0000000000000000e+00  9.9999999999992542e-29 0.0000000000000000e+00 0.0000000000000000e+00  9.9999999999992542e-29 0.0000000000000000e+00 0.0000000000000000e+00  9.9999999999992542e-29 0.0000000000000000e+00 0.0000000000000000e+00  9.9999999999992542e-29 0.0000000000000000e+00 0.0000000000000000e+00  9.9999999999992542e-29 0.0000000000000000e+00 0.0000000000000000e+00  9.9999999999992542e-29 0.0000000000000000e+00 0.0000000000000000e+00  9.9999999999992542e-29 0.0000000000000000e+00 0.0000000000000000e+00  9.9999999999992542e-29 0.0000000000000000e+00 0.0000000000000000e+00  9.9999999999992542e-29 0.0000000000000000e+00 0.0000000000000000e+00  9.9999999999992542e-29 0.0000000000000000e+00 0.0000000000000000e+00  9.9999999999992542e-29 0.0000000000000000e+00 0.0000000000000000e+00  9.9999999999992542e-29 0.0000000000000000e+00 0.0000000000000000e+00  9.9999999999992542e-29 0.0000000000000000e+00 0.0000000000000000e+00  9.9999999999992542e-29 0.0000000000000000e+00 0.0000000000000000e+00  9.9999999999992542e-29 0.0000000000000000e+00 0.0000000000000000e+00  9.9999999999992542e-29 0.0000000000000000e+00 0.0000000000000000e+00  9.9999999999992542e-29 0.0000000000000000e+00 0.0000000000000000e+00  9.9999999999992542e-29 0.0000000000000000e+00 0.0000000000000000e+00  9.9999999999992542e-29 0.0000000000000000e+00 0.0000000000000000e+00  9.9999999999992542e-29 0.0000000000000000e+00 0.0000000000000000e+00  9.9999999999992542e-29 0.0000000000000000e+00 0.0000000000000000e+00  9.9999999999992542e-29 0.0000000000000000e+00 0.0000000000000000e+00  9.9999999999992542e-29 0.0000000000000000e+00 0.0000000000000000e+00  9.9999999999992542e-29 0.0000000000000000e+00 0.0000000000000000e+00  9.9999999999992542e-29 0.0000000000000000e+00 0.0000000000000000e+00  9.9999999999992542e-29 0.0000000000000000e+00 0.0000000000000000e+00  9.9999999999992542e-29 0.0000000000000000e+00 0.0000000000000000e+00  9.9999999999992542e-29 0.0000000000000000e+00 0.0000000000000000e+00  9.9999999999992542e-29 0.0000000000000000e+00 0.0000000000000000e+00  9.9999999999992542e-29 0.0000000000000000e+00 0.0000000000000000e+00  9.9999999999992542e-29 0.0000000000000000e+00 0.0000000000000000e+00  9.9999999999992542e-29 0.0000000000000000e+00 0.0000000000000000e+00  9.9999999999992542e-29 0.0000000000000000e+00 0.0000000000000000e+00  9.9999999999992542e-29 0.0000000000000000e+00 0.0000000000000000e+00  9.9999999999992542e-29 0.0000000000000000e+00 0.0000000000000000e+00  9.9999999999992542e-29 0.0000000000000000e+00 0.0000000000000000e+00  9.9999999999992542e-29 0.0000000000000000e+00 0.0000000000000000e+00  9.9999999999992542e-29 0.0000000000000000e+00 0.0000000000000000e+00  9.9999999999992542e-29 0.0000000000000000e+00 0.0000000000000000e+00  9.9999999999992542e-29 0.0000000000000000e+00 0.0000000000000000e+00  9.9999999999992542e-29 0.0000000000000000e+00 0.0000000000000000e+00  9.9999999999992542e-29 0.0000000000000000e+00 0.0000000000000000e+00  9.9999999999992542e-29 0.0000000000000000e+00 0.0000000000000000e+00  9.9999999999992542e-29 0.0000000000000000e+00 0.0000000000000000e+00  9.9999999999992542e-29 0.0000000000000000e+00 0.0000000000000000e+00  9.9999999999992542e-29 0.0000000000000000e+00 0.0000000000000000e+00  9.9999999999992542e-29 0.0000000000000000e+00 0.0000000000000000e+00  9.9999999999992542e-29 0.0000000000000000e+00 0.0000000000000000e+00  9.9999999999992542e-29 0.0000000000000000e+00 0.0000000000000000e+00  9.9999999999992542e-29 0.0000000000000000e+00 0.0000000000000000e+00  9.9999999999992542e-29 0.0000000000000000e+00 0.0000000000000000e+00  9.9999999999992542e-29 0.0000000000000000e+00 0.0000000000000000e+00  9.9999999999992542e-29 0.0000000000000000e+00 0.0000000000000000e+00  9.9999999999992542e-29 0.0000000000000000e+00 0.0000000000000000e+00  9.9999999999992542e-29 0.0000000000000000e+00 0.0000000000000000e+00  9.9999999999992542e-29 0.0000000000000000e+00 0.0000000000000000e+00  9.9999999999992542e-29 0.0000000000000000e+00 0.0000000000000000e+00  9.9999999999992542e-29 0.0000000000000000e+00 0.0000000000000000e+00  9.9999999999992542e-29 0.0000000000000000e+00 0.0000000000000000e+00  9.9999999999992542e-29 0.0000000000000000e+00 0.0000000000000000e+00  9.9999999999992542e-29 0.0000000000000000e+00 0.0000000000000000e+00  9.9999999999992542e-29 0.0000000000000000e+00 0.0000000000000000e+00  9.9999999999992542e-29 0.0000000000000000e+00 0.0000000000000000e+00  9.9999999999992542e-29 0.0000000000000000e+00 0.0000000000000000e+00  9.9999999999992542e-29 0.0000000000000000e+00 0.0000000000000000e+00  9.9999999999992542e-29 0.0000000000000000e+00 0.0000000000000000e+00  9.9999999999992542e-29 0.0000000000000000e+00 0.0000000000000000e+00  9.9999999999992542e-29 0.0000000000000000e+00 0.0000000000000000e+00  9.9999999999992542e-29 0.0000000000000000e+00 0.0000000000000000e+00  9.9999999999992542e-29 0.0000000000000000e+00 0.0000000000000000e+00  9.9999999999992542e-29 0.0000000000000000e+00 0.0000000000000000e+00  9.9999999999992542e-29 0.0000000000000000e+00 0.0000000000000000e+00  9.9999999999992542e-29 0.0000000000000000e+00 0.0000000000000000e+00  9.9999999999992542e-29 0.0000000000000000e+00 0.0000000000000000e+00  9.9999999999992542e-29 0.0000000000000000e+00 0.0000000000000000e+00  9.9999999999992542e-29 0.0000000000000000e+00 0.0000000000000000e+00  9.9999999999992542e-29 0.0000000000000000e+00 0.0000000000000000e+00  9.9999999999992542e-29 0.0000000000000000e+00 0.0000000000000000e+00  9.9999999999992542e-29 0.0000000000000000e+00 0.0000000000000000e+00  9.9999999999992542e-29 0.0000000000000000e+00 0.0000000000000000e+00  9.9999999999992542e-29 0.0000000000000000e+00 0.0000000000000000e+00  9.9999999999992542e-29 0.0000000000000000e+00 0.0000000000000000e+00  9.9999999999992542e-29 0.0000000000000000e+00 0.0000000000000000e+00  9.9999999999992542e-29 0.0000000000000000e+00 0.0000000000000000e+00  9.9999999999992542e-29 0.0000000000000000e+00 0.0000000000000000e+00  9.9999999999992542e-29 0.0000000000000000e+00 0.0000000000000000e+00  9.9999999999992542e-29 0.0000000000000000e+00 0.0000000000000000e+00  9.9999999999992542e-29 0.0000000000000000e+00 0.0000000000000000e+00  9.9999999999992542e-29 0.0000000000000000e+00 0.0000000000000000e+00  9.9999999999992542e-29 0.0000000000000000e+00 0.0000000000000000e+00  9.9999999999992542e-29 0.0000000000000000e+00 0.0000000000000000e+00  9.9999999999992542e-29 0.0000000000000000e+00 0.0000000000000000e+00  9.9999999999992542e-29 0.0000000000000000e+00 0.0000000000000000e+00  9.9999999999992542e-29 0.0000000000000000e+00 0.0000000000000000e+00  9.9999999999992542e-29 0.0000000000000000e+00 0.0000000000000000e+00  9.9999999999992542e-29 0.0000000000000000e+00 0.0000000000000000e+00  9.9999999999992542e-29 0.0000000000000000e+00 0.0000000000000000e+00  9.9999999999992542e-29 0.0000000000000000e+00 0.0000000000000000e+00  9.9999999999992542e-29 0.0000000000000000e+00 0.0000000000000000e+00  9.9999999999992542e-29 0.0000000000000000e+00 0.0000000000000000e+00  9.9999999999992542e-29 0.0000000000000000e+00 0.0000000000000000e+00  9.9999999999992542e-29 0.0000000000000000e+00 0.0000000000000000e+00  9.9999999999992542e-29 0.0000000000000000e+00 0.0000000000000000e+00  9.9999999999992542e-29 0.0000000000000000e+00 0.0000000000000000e+00  9.9999999999992542e-29 0.0000000000000000e+00 0.0000000000000000e+00  9.9999999999992542e-29 0.0000000000000000e+00 0.0000000000000000e+00  9.9999999999992542e-29 0.0000000000000000e+00 0.0000000000000000e+00  9.9999999999992542e-29 0.0000000000000000e+00 0.0000000000000000e+00  9.9999999999992542e-29 0.0000000000000000e+00 0.0000000000000000e+00  9.9999999999992542e-29 0.0000000000000000e+00 0.0000000000000000e+00  9.9999999999992542e-29 0.0000000000000000e+00 0.0000000000000000e+00  9.9999999999992542e-29 0.0000000000000000e+00 0.0000000000000000e+00  9.9999999999992542e-29 0.0000000000000000e+00 0.0000000000000000e+00  9.9999999999992542e-29 0.0000000000000000e+00 0.0000000000000000e+00  9.9999999999992542e-29 0.0000000000000000e+00 0.0000000000000000e+00  9.9999999999992542e-29 0.0000000000000000e+00 0.0000000000000000e+00  9.9999999999992542e-29 0.0000000000000000e+00 0.0000000000000000e+00  9.9999999999992542e-29 0.0000000000000000e+00 0.0000000000000000e+00  9.9999999999992542e-29 0.0000000000000000e+00 0.0000000000000000e+00  9.9999999999992542e-29 0.0000000000000000e+00 0.0000000000000000e+00  9.9999999999992542e-29 0.0000000000000000e+00 0.0000000000000000e+00  9.9999999999992542e-29 0.0000000000000000e+00 0.0000000000000000e+00  9.9999999999992542e-29 0.0000000000000000e+00 0.0000000000000000e+00  9.9999999999992542e-29 0.0000000000000000e+00 0.0000000000000000e+00  9.9999999999992542e-29 0.0000000000000000e+00 0.0000000000000000e+00  9.9999999999992542e-29 0.0000000000000000e+00 0.0000000000000000e+00  9.9999999999992542e-29 0.0000000000000000e+00 0.0000000000000000e+00  9.9999999999992542e-29 0.0000000000000000e+00 0.0000000000000000e+00  9.9999999999992542e-29 0.0000000000000000e+00 0.0000000000000000e+00  9.9999999999992542e-29 0.0000000000000000e+00 0.0000000000000000e+00  9.9999999999992542e-29 0.0000000000000000e+00 0.0000000000000000e+00  9.9999999999992542e-29 0.0000000000000000e+00 0.0000000000000000e+00  9.9999999999992542e-29 0.0000000000000000e+00 0.0000000000000000e+00  9.9999999999992542e-29 0.0000000000000000e+00 0.0000000000000000e+00  9.9999999999992542e-29 0.0000000000000000e+00 0.0000000000000000e+00  9.9999999999992542e-29 0.0000000000000000e+00 0.0000000000000000e+00  9.9999999999992542e-29 0.0000000000000000e+00 0.0000000000000000e+00  9.9999999999992542e-29 0.0000000000000000e+00 0.0000000000000000e+00  9.9999999999992542e-29 0.0000000000000000e+00 0.0000000000000000e+00  9.9999999999992542e-29 0.0000000000000000e+00 0.0000000000000000e+00  9.9999999999992542e-29 0.0000000000000000e+00 0.0000000000000000e+00  9.9999999999992542e-29 0.0000000000000000e+00 0.0000000000000000e+00  9.9999999999992542e-29 0.0000000000000000e+00 0.0000000000000000e+00  9.9999999999992542e-29 0.0000000000000000e+00 0.0000000000000000e+00  9.9999999999992542e-29 0.0000000000000000e+00 0.0000000000000000e+00  9.9999999999992542e-29 0.0000000000000000e+00 0.0000000000000000e+00  9.9999999999992542e-29 0.0000000000000000e+00 0.0000000000000000e+00  9.9999999999992542e-29 0.0000000000000000e+00 0.0000000000000000e+00  9.9999999999992542e-29 0.0000000000000000e+00 0.0000000000000000e+00  9.9999999999992542e-29 0.0000000000000000e+00 0.0000000000000000e+00  9.9999999999992542e-29 0.0000000000000000e+00 0.0000000000000000e+00  9.9999999999992542e-29 0.0000000000000000e+00 0.0000000000000000e+00  9.9999999999992542e-29 0.0000000000000000e+00 0.0000000000000000e+00  9.9999999999992542e-29 0.0000000000000000e+00 0.0000000000000000e+00  9.9999999999992542e-29 0.0000000000000000e+00 0.0000000000000000e+00  9.9999999999992542e-29 0.0000000000000000e+00 0.0000000000000000e+00  9.9999999999992542e-29 0.0000000000000000e+00 0.0000000000000000e+00  9.9999999999992542e-29 0.0000000000000000e+00 0.0000000000000000e+00  9.9999999999992542e-29 0.0000000000000000e+00 0.0000000000000000e+00  9.9999999999992542e-29 0.0000000000000000e+00 0.0000000000000000e+00  9.9999999999992542e-29 0.0000000000000000e+00 0.0000000000000000e+00  9.9999999999992542e-29 0.0000000000000000e+00 0.0000000000000000e+00  9.9999999999992542e-29 0.0000000000000000e+00 0.0000000000000000e+00  9.9999999999992542e-29 0.0000000000000000e+00 0.0000000000000000e+00  9.9999999999992542e-29 0.0000000000000000e+00 0.0000000000000000e+00  9.9999999999992542e-29 0.0000000000000000e+00 0.0000000000000000e+00  9.9999999999992542e-29 0.0000000000000000e+00 0.0000000000000000e+00  9.9999999999992542e-29 0.0000000000000000e+00 0.0000000000000000e+00  9.9999999999992542e-29 0.0000000000000000e+00 0.0000000000000000e+00  9.9999999999992542e-29 0.0000000000000000e+00 0.0000000000000000e+00  9.9999999999992542e-29 0.0000000000000000e+00 0.0000000000000000e+00  9.9999999999992542e-29 0.0000000000000000e+00 0.0000000000000000e+00  9.9999999999992542e-29 0.0000000000000000e+00 0.0000000000000000e+00  9.9999999999992542e-29 0.0000000000000000e+00 0.0000000000000000e+00  9.9999999999992542e-29 0.0000000000000000e+00 0.0000000000000000e+00  9.9999999999992542e-29 0.0000000000000000e+00 0.0000000000000000e+00  9.9999999999992542e-29 0.0000000000000000e+00 0.0000000000000000e+00  9.99999999