<?xml version="1.0"?>
<VTKFile type="UnstructuredGrid"  version="0.1"  >
<UnstructuredGrid>
<Piece  NumberOfPoints="25032" NumberOfCells="49121">
<Points>
<DataArray  type="Float64"  NumberOfComponents="3"  format="ascii">-5 0 0  40 0 0  40 10 0  0 10 0  0 1 0  -5 1 0  -5 0.75 0  5 0.75 0  5 1.25 0  0 1.25 0  0 1.075 0  1 1.075 0  1 0.925 0  -2 0.925 0  -2 1 0  0 1.5 0  40 1.5 0  -4.924999999999996 0 0  -4.849999999999993 0 0  -4.774999999999989 0 0  -4.699999999999985 0 0  -4.624999999999981 0 0  -4.549999999999978 0 0  -4.474999999999974 0 0  -4.39999999999997 0 0  -4.324999999999966 0 0  -4.249999999999963 0 0  -4.174999999999959 0 0  -4.099999999999955 0 0  -4.024999999999951 0 0  -3.949999999999947 0 0  -3.874999999999943 0 0  -3.79999999999994 0 0  -3.724999999999936 0 0  -3.649999999999932 0 0  -3.574999999999929 0 0  -3.499999999999925 0 0  -3.424999999999921 0 0  -3.349999999999917 0 0  -3.274999999999913 0 0  -3.19999999999993 0 0  -3.124999999999964 0 0  -3.049999999999997 0 0  -2.97500000000003 0 0  -2.900000000000063 0 0  -2.825000000000129 0 0  -2.750000000000199 0 0  -2.675000000000269 0 0  -2.600000000000339 0 0  -2.525000000000407 0 0  -2.450000000000458 0 0  -2.37500000000051 0 0  -2.300000000000562 0 0  -2.225000000000613 0 0  -2.150000000000647 0 0  -2.075000000000662 0 0  -2.000000000000676 0 0  -1.925000000000691 0 0  -1.850000000000705 0 0  -1.775000000000705 0 0  -1.700000000000702 0 0  -1.625000000000698 0 0  -1.550000000000694 0 0  -1.47500000000069 0 0  -1.400000000000686 0 0  -1.325000000000682 0 0  -1.250000000000679 0 0  -1.175000000000675 0 0  -1.100000000000671 0 0  -1.025000000000667 0 0  -0.9500000000006636 0 0  -0.875000000000659 0 0  -0.8000000000006553 0 0  -0.7250000000006516 0 0  -0.6500000000006478 0 0  -0.5750000000006441 0 0  -0.5000000000006395 0 0  -0.4250000000006366 0 0  -0.3500000000006329 0 0  -0.2750000000006292 0 0  -0.2000000000006246 0 0  -0.1250000000006208 0 0  -0.05000000000061799 0 0  0.02499999999938662 0 0  0.09999999999939035 0 0  0.1749999999993941 0 0  0.2499999999993978 0 0  0.3249999999993758 0 0  0.3999999999993431 0 0  0.4749999999993095 0 0  0.5499999999992768 0 0  0.6249999999992433 0 0  0.6999999999991351 0 0  0.7749999999990296 0 0  0.8499999999989214 0 0  0.9249999999988141 0 0  0.9999999999986944 0 0  1.074999999998552 0 0  1.149999999998407 0 0  1.224999999998261 0 0  1.299999999998119 0 0  1.374999999997974 0 0  1.44999999999783 0 0  1.524999999997685 0 0  1.599999999997541 0 0  1.674999999997397 0 0  1.749999999997253 0 0  1.824999999997109 0 0  1.899999999996965 0 0  1.974999999996821 0 0  2.049999999996677 0 0  2.124999999996531 0 0  2.199999999996388 0 0  2.274999999996243 0 0  2.349999999996101 0 0  2.424999999995955 0 0  2.49999999999581 0 0  2.574999999995668 0 0  2.649999999995523 0 0  2.724999999995378 0 0  2.799999999995234 0 0  2.874999999995089 0 0  2.949999999994946 0 0  3.024999999994801 0 0  3.099999999994658 0 0  3.174999999994514 0 0  3.249999999994371 0 0  3.324999999994224 0 0  3.39999999999408 0 0  3.474999999993937 0 0  3.549999999993792 0 0  3.624999999993648 0 0  3.699999999993503 0 0  3.774999999993359 0 0  3.849999999993216 0 0  3.924999999993071 0 0  3.999999999992927 0 0  4.074999999992784 0 0  4.149999999992639 0 0  4.224999999992495 0 0  4.29999999999235 0 0  4.374999999992207 0 0  4.449999999992063 0 0  4.524999999991918 0 0  4.599999999991773 0 0  4.674999999991629 0 0  4.749999999991484 0 0  4.82499999999134 0 0  4.899999999991195 0 0  4.974999999991052 0 0  5.049999999990908 0 0  5.124999999990763 0 0  5.199999999990617 0 0  5.274999999990472 0 0  5.349999999990329 0 0  5.424999999990185 0 0  5.49999999999004 0 0  5.574999999989895 0 0  5.649999999989751 0 0  5.724999999989608 0 0  5.799999999989463 0 0  5.874999999989317 0 0  5.949999999989172 0 0  6.024999999989028 0 0  6.099999999988885 0 0  6.17499999998874 0 0  6.249999999988596 0 0  6.324999999988451 0 0  6.399999999988305 0 0  6.474999999988162 0 0  6.549999999988019 0 0  6.624999999987873 0 0  6.699999999987728 0 0  6.774999999987587 0 0  6.849999999987441 0 0  6.924999999987296 0 0  6.999999999987153 0 0  7.074999999987007 0 0  7.149999999986864 0 0  7.224999999986718 0 0  7.299999999986575 0 0  7.374999999986429 0 0  7.449999999986284 0 0  7.524999999986141 0 0  7.599999999985997 0 0  7.674999999985852 0 0  7.749999999985706 0 0  7.824999999985563 0 0  7.89999999998542 0 0  7.974999999985274 0 0  8.049999999985129 0 0  8.124999999984986 0 0  8.19999999998484 0 0  8.274999999984697 0 0  8.349999999984554 0 0  8.424999999984408 0 0  8.499999999984261 0 0  8.574999999984119 0 0  8.649999999983976 0 0  8.724999999983829 0 0  8.799999999983685 0 0  8.874999999983542 0 0  8.949999999983397 0 0  9.024999999983253 0 0  9.099999999983106 0 0  9.174999999982964 0 0  9.249999999982817 0 0  9.324999999982674 0 0  9.399999999982532 0 0  9.474999999982385 0 0  9.549999999982241 0 0  9.624999999982094 0 0  9.699999999981955 0 0  9.774999999981809 0 0  9.849999999981662 0 0  9.924999999981519 0 0  9.999999999981375 0 0  10.07499999998123 0 0  10.14999999998109 0 0  10.22499999998094 0 0  10.2999999999808 0 0  10.37499999998065 0 0  10.44999999998051 0 0  10.52499999998036 0 0  10.59999999998022 0 0  10.67499999998007 0 0  10.74999999997993 0 0  10.82499999997979 0 0  10.89999999997964 0 0  10.9749999999795 0 0  11.04999999997935 0 0  11.12499999997921 0 0  11.19999999997906 0 0  11.27499999997892 0 0  11.34999999997877 0 0  11.42499999997863 0 0  11.49999999997848 0 0  11.57499999997834 0 0  11.6499999999782 0 0  11.72499999997805 0 0  11.79999999997791 0 0  11.87499999997776 0 0  11.94999999997762 0 0  12.02499999997748 0 0  12.09999999997733 0 0  12.17499999997719 0 0  12.24999999997704 0 0  12.3249999999769 0 0  12.39999999997675 0 0  12.47499999997661 0 0  12.54999999997646 0 0  12.62499999997632 0 0  12.69999999997617 0 0  12.77499999997603 0 0  12.84999999997589 0 0  12.92499999997574 0 0  12.9999999999756 0 0  13.07499999997545 0 0  13.14999999997531 0 0  13.22499999997516 0 0  13.29999999997502 0 0  13.37499999997488 0 0  13.44999999997473 0 0  13.52499999997459 0 0  13.59999999997444 0 0  13.6749999999743 0 0  13.74999999997415 0 0  13.82499999997401 0 0  13.89999999997386 0 0  13.97499999997372 0 0  14.04999999997358 0 0  14.12499999997343 0 0  14.19999999997329 0 0  14.27499999997314 0 0  14.349999999973 0 0  14.42499999997285 0 0  14.49999999997271 0 0  14.57499999997257 0 0  14.64999999997242 0 0  14.72499999997228 0 0  14.79999999997213 0 0  14.87499999997199 0 0  14.94999999997185 0 0  15.0249999999717 0 0  15.09999999997156 0 0  15.17499999997142 0 0  15.24999999997127 0 0  15.32499999997113 0 0  15.39999999997098 0 0  15.47499999997084 0 0  15.54999999997069 0 0  15.62499999997055 0 0  15.69999999997041 0 0  15.77499999997026 0 0  15.84999999997012 0 0  15.92499999996997 0 0  15.99999999996983 0 0  16.07499999996969 0 0  16.14999999996954 0 0  16.2249999999694 0 0  16.29999999996926 0 0  16.37499999996911 0 0  16.44999999996897 0 0  16.52499999996882 0 0  16.59999999996868 0 0  16.67499999996853 0 0  16.74999999996839 0 0  16.82499999996825 0 0  16.8999999999681 0 0  16.97499999996796 0 0  17.04999999996781 0 0  17.12499999996767 0 0  17.19999999996763 0 0  17.27499999996763 0 0  17.34999999996764 0 0  17.42499999996764 0 0  17.49999999996764 0 0  17.57499999996794 0 0  17.64999999996824 0 0  17.72499999996854 0 0  17.79999999996884 0 0  17.87499999996919 0 0  17.94999999996964 0 0  18.02499999997008 0 0  18.09999999997053 0 0  18.17499999997098 0 0  18.24999999997143 0 0  18.32499999997188 0 0  18.39999999997232 0 0  18.47499999997277 0 0  18.54999999997322 0 0  18.62499999997367 0 0  18.69999999997412 0 0  18.77499999997456 0 0  18.84999999997501 0 0  18.92499999997546 0 0  18.99999999997591 0 0  19.07499999997636 0 0  19.14999999997681 0 0  19.22499999997725 0 0  19.2999999999777 0 0  19.37499999997815 0 0  19.4499999999786 0 0  19.52499999997904 0 0  19.5999999999795 0 0  19.67499999997995 0 0  19.74999999998039 0 0  19.82499999998084 0 0  19.89999999998129 0 0  19.97499999998174 0 0  20.04999999998218 0 0  20.12499999998263 0 0  20.19999999998308 0 0  20.27499999998353 0 0  20.34999999998398 0 0  20.42499999998443 0 0  20.49999999998487 0 0  20.57499999998532 0 0  20.64999999998576 0 0  20.72499999998622 0 0  20.79999999998667 0 0  20.87499999998711 0 0  20.94999999998756 0 0  21.024999999988 0 0  21.09999999998846 0 0  21.17499999998891 0 0  21.24999999998935 0 0  21.3249999999898 0 0  21.39999999999025 0 0  21.4749999999907 0 0  21.54999999999115 0 0  21.62499999999159 0 0  21.69999999999204 0 0  21.77499999999249 0 0  21.84999999999294 0 0  21.92499999999339 0 0  21.99999999999383 0 0  22.07499999999428 0 0  22.14999999999473 0 0  22.22499999999518 0 0  22.29999999999563 0 0  22.37499999999607 0 0  22.44999999999652 0 0  22.52499999999697 0 0  22.59999999999742 0 0  22.67499999999787 0 0  22.74999999999831 0 0  22.82499999999876 0 0  22.89999999999922 0 0  22.97499999999966 0 0  23.05000000000011 0 0  23.12500000000055 0 0  23.200000000001 0 0  23.27500000000145 0 0  23.3500000000019 0 0  23.42500000000235 0 0  23.5000000000028 0 0  23.57500000000324 0 0  23.65000000000369 0 0  23.72500000000414 0 0  23.80000000000459 0 0  23.87500000000503 0 0  23.95000000000548 0 0  24.02500000000594 0 0  24.10000000000638 0 0  24.17500000000683 0 0  24.25000000000728 0 0  24.32500000000773 0 0  24.40000000000817 0 0  24.47500000000862 0 0  24.55000000000907 0 0  24.62500000000952 0 0  24.70000000000997 0 0  24.77500000001042 0 0  24.85000000001086 0 0  24.92500000001131 0 0  25.00000000001176 0 0  25.07500000001221 0 0  25.15000000001266 0 0  25.2250000000131 0 0  25.30000000001355 0 0  25.37500000001399 0 0  25.45000000001445 0 0  25.5250000000149 0 0  25.60000000001534 0 0  25.67500000001579 0 0  25.75000000001624 0 0  25.82500000001669 0 0  25.90000000001714 0 0  25.97500000001758 0 0  26.05000000001803 0 0  26.12500000001848 0 0  26.2000000000189
[...]
<PointData  Vectors="f_6-0"> 
<DataArray  type="Float64"  Name="f_6-0"  NumberOfComponents="3" format="ascii">9.9990920426259511e-01 0.0000000000000000e+00 0.0000000000000000e+00  9.5921017784954143e-01 0.0000000000000000e+00 0.0000000000000000e+00  8.7563441290570163e-04 -9.4861876731243779e-04 -7.1878760327585280e-05  1.0000000000003164e-72 0.0000000000000000e+00 0.0000000000000000e+00  1.0000000000001877e-72 0.0000000000000000e+00 0.0000000000000000e+00  1.0000000000003164e-72 0.0000000000000000e+00 0.0000000000000000e+00  8.4828363995751288e-01 0.0000000000000000e+00 4.2414181997865043e-02  7.1955358935749236e-01 2.8977450980775732e-03 2.9249226437372048e-02  1.0375113383293849e-01 -3.8667708032820761e-03 4.5707101294959343e-03  1.0000000000000429e-72 0.0000000000000000e+00 0.0000000000000000e+00  1.0000000000000429e-72 0.0000000000000000e+00 0.0000000000000000e+00  9.5269788785711698e-02 -7.2550741686925506e-03 4.4229636487669701e-03  3.3495572727191975e-01 2.0116615081103486e-03 1.3257769486079199e-02  3.0062667387336423e-01 -4.3610772388754781e-04 1.1335343962472108e-02  1.0000000000000429e-72 0.0000000000000000e+00 0.0000000000000000e+00  1.0000000000000429e-72 0.0000000000000000e+00 0.0000000000000000e+00  2.1209630968143689e-01 -7.1962877316098715e-05 7.0584884089749354e-03  1.0000522722242220e+00 0.0000000000000000e+00 0.0000000000000000e+00  9.9929290942570248e-01 0.0000000000000000e+00 0.0000000000000000e+00  1.0001427867625954e+00 0.0000000000000000e+00 0.0000000000000000e+00  1.0006137151143095e+00 0.0000000000000000e+00 0.0000000000000000e+00  1.0013352302719392e+00 0.0000000000000000e+00 0.0000000000000000e+00  1.0023013539751275e+00 0.0000000000000000e+00 0.0000000000000000e+00  1.0036488417812417e+00 0.0000000000000000e+00 0.0000000000000000e+00  1.0050652200150296e+00 0.0000000000000000e+00 0.0000000000000000e+00  1.0061860666279041e+00 0.0000000000000000e+00 0.0000000000000000e+00  1.0081550026715465e+00 0.0000000000000000e+00 0.0000000000000000e+00  1.0093573055775515e+00 0.0000000000000000e+00 0.0000000000000000e+00  1.0115151140405130e+00 0.0000000000000000e+00 0.0000000000000000e+00  1.0129208494053175e+00 0.0000000000000000e+00 0.0000000000000000e+00  1.0150933538250309e+00 0.0000000000000000e+00 0.0000000000000000e+00  1.0165660780846386e+00 0.0000000000000000e+00 0.0000000000000000e+00  1.0187055057196344e+00 0.0000000000000000e+00 0.0000000000000000e+00  1.0203565739320546e+00 0.0000000000000000e+00 0.0000000000000000e+00  1.0222911964947665e+00 0.0000000000000000e+00 0.0000000000000000e+00  1.0240485292083299e+00 0.0000000000000000e+00 0.0000000000000000e+00  1.0260744946091240e+00 0.0000000000000000e+00 0.0000000000000000e+00  1.0278526608149869e+00 0.0000000000000000e+00 0.0000000000000000e+00  1.0295982769254444e+00 0.0000000000000000e+00 0.0000000000000000e+00  1.0315975509160193e+00 0.0000000000000000e+00 0.0000000000000000e+00  1.0333258555616716e+00 0.0000000000000000e+00 0.0000000000000000e+00  1.0352206318276247e+00 0.0000000000000000e+00 0.0000000000000000e+00  1.0369183361849137e+00 0.0000000000000000e+00 0.0000000000000000e+00  1.0387640252764225e+00 0.0000000000000000e+00 0.0000000000000000e+00  1.0405656859085017e+00 0.0000000000000000e+00 0.0000000000000000e+00  1.0422820831725055e+00 0.0000000000000000e+00 0.0000000000000000e+00  1.0440863523141566e+00 0.0000000000000000e+00 0.0000000000000000e+00  1.0457759248990821e+00 0.0000000000000000e+00 0.0000000000000000e+00  1.0475330523149036e+00 0.0000000000000000e+00 0.0000000000000000e+00  1.0491908891483945e+00 0.0000000000000000e+00 0.0000000000000000e+00  1.0509763541766306e+00 0.0000000000000000e+00 0.0000000000000000e+00  1.0526363613504985e+00 0.0000000000000000e+00 0.0000000000000000e+00  1.0542456641615778e+00 0.0000000000000000e+00 0.0000000000000000e+00  1.0560098976073191e+00 0.0000000000000000e+00 0.0000000000000000e+00  1.0576053698993779e+00 0.0000000000000000e+00 0.0000000000000000e+00  1.0592881245751713e+00 0.0000000000000000e+00 0.0000000000000000e+00  1.0608400467560151e+00 0.0000000000000000e+00 0.0000000000000000e+00  1.0625117010133811e+00 0.0000000000000000e+00 0.0000000000000000e+00  1.0641230253290817e+00 0.0000000000000000e+00 0.0000000000000000e+00  1.0656931949094754e+00 0.0000000000000000e+00 0.0000000000000000e+00  1.0672967164932328e+00 0.0000000000000000e+00 0.0000000000000000e+00  1.0688442161966047e+00 0.0000000000000000e+00 0.0000000000000000e+00  1.0704217752361245e+00 0.0000000000000000e+00 0.0000000000000000e+00  1.0719192133649436e+00 0.0000000000000000e+00 0.0000000000000000e+00  1.0735082725794309e+00 0.0000000000000000e+00 0.0000000000000000e+00  1.0750101410970287e+00 0.0000000000000000e+00 0.0000000000000000e+00  1.0764774941640582e+00 0.0000000000000000e+00 0.0000000000000000e+00  1.0780231523376358e+00 0.0000000000000000e+00 0.0000000000000000e+00  1.0794415712951004e+00 0.0000000000000000e+00 0.0000000000000000e+00  1.0809395457064366e+00 0.0000000000000000e+00 0.0000000000000000e+00  1.0822870662319100e+00 0.0000000000000000e+00 0.0000000000000000e+00  1.0837403922046644e+00 0.0000000000000000e+00 0.0000000000000000e+00  1.0850844935244015e+00 0.0000000000000000e+00 0.0000000000000000e+00  1.0864005495999469e+00 0.0000000000000000e+00 0.0000000000000000e+00  1.0876769480912374e+00 0.0000000000000000e+00 0.0000000000000000e+00  1.0888813432014361e+00 0.0000000000000000e+00 0.0000000000000000e+00  1.0900323188975936e+00 0.0000000000000000e+00 0.0000000000000000e+00  1.0910824073783496e+00 0.0000000000000000e+00 0.0000000000000000e+00  1.0920868042232288e+00 0.0000000000000000e+00 0.0000000000000000e+00  1.0929651054605085e+00 0.0000000000000000e+00 0.0000000000000000e+00  1.0937223883931906e+00 0.0000000000000000e+00 0.0000000000000000e+00  1.0944300047976572e+00 0.0000000000000000e+00 0.0000000000000000e+00  1.0949392561660714e+00 0.0000000000000000e+00 0.0000000000000000e+00  1.0954279776819495e+00 0.0000000000000000e+00 0.0000000000000000e+00  1.0957167155292185e+00 0.0000000000000000e+00 0.0000000000000000e+00  1.0960157492839586e+00 0.0000000000000000e+00 0.0000000000000000e+00  1.0961902264553200e+00 0.0000000000000000e+00 0.0000000000000000e+00  1.0963004933319449e+00 0.0000000000000000e+00 0.0000000000000000e+00  1.0963692420391546e+00 0.0000000000000000e+00 0.0000000000000000e+00  1.0963926007315512e+00 0.0000000000000000e+00 0.0000000000000000e+00  1.0964047489822473e+00 0.0000000000000000e+00 0.0000000000000000e+00  1.0963721404439184e+00 0.0000000000000000e+00 0.0000000000000000e+00  1.0963670520799313e+00 0.0000000000000000e+00 0.0000000000000000e+00  1.0963390941571833e+00 0.0000000000000000e+00 0.0000000000000000e+00  1.0962914299700188e+00 0.0000000000000000e+00 0.0000000000000000e+00  1.0963021808811690e+00 0.0000000000000000e+00 0.0000000000000000e+00  1.0962358209680314e+00 0.0000000000000000e+00 0.0000000000000000e+00  1.0962319798138638e+00 0.0000000000000000e+00 0.0000000000000000e+00  1.0961502229104914e+00 0.0000000000000000e+00 0.0000000000000000e+00  1.0961770062965750e+00 0.0000000000000000e+00 0.0000000000000000e+00  1.0961281529662932e+00 0.0000000000000000e+00 0.0000000000000000e+00  1.0961140909104632e+00 0.0000000000000000e+00 0.0000000000000000e+00  1.0960684125027178e+00 0.0000000000000000e+00 0.0000000000000000e+00  1.0960466990343181e+00 0.0000000000000000e+00 0.0000000000000000e+00  1.0960261026422038e+00 0.0000000000000000e+00 0.0000000000000000e+00  1.0959763311620341e+00 0.0000000000000000e+00 0.0000000000000000e+00  1.0959672393885691e+00 0.0000000000000000e+00 0.0000000000000000e+00  1.0959318214323548e+00 0.0000000000000000e+00 0.0000000000000000e+00  1.0959043673864637e+00 0.0000000000000000e+00 0.0000000000000000e+00  1.0959084998606616e+00 0.0000000000000000e+00 0.0000000000000000e+00  1.0958534863012761e+00 0.0000000000000000e+00 0.0000000000000000e+00  1.0958494282158577e+00 0.0000000000000000e+00 0.0000000000000000e+00  1.0957699955366202e+00 0.0000000000000000e+00 0.0000000000000000e+00  1.0958028942445432e+00 0.0000000000000000e+00 0.0000000000000000e+00  1.0957535189375300e+00 0.0000000000000000e+00 0.0000000000000000e+00  1.0957420467631738e+00 0.0000000000000000e+00 0.0000000000000000e+00  1.0956939387412363e+00 0.0000000000000000e+00 0.0000000000000000e+00  1.0956710375920606e+00 0.0000000000000000e+00 0.0000000000000000e+00  1.0956421585059635e+00 0.0000000000000000e+00 0.0000000000000000e+00  1.0955974499187886e+00 0.0000000000000000e+00 0.0000000000000000e+00  1.0955711849142435e+00 0.0000000000000000e+00 0.0000000000000000e+00  1.0955357294312311e+00 0.0000000000000000e+00 0.0000000000000000e+00  1.0955070975452328e+00 0.0000000000000000e+00 0.0000000000000000e+00  1.0955026649608590e+00 0.0000000000000000e+00 0.0000000000000000e+00  1.0954425896708813e+00 0.0000000000000000e+00 0.0000000000000000e+00  1.0954275872688559e+00 0.0000000000000000e+00 0.0000000000000000e+00  1.0953438641562019e+00 0.0000000000000000e+00 0.0000000000000000e+00  1.0953697336857067e+00 0.0000000000000000e+00 0.0000000000000000e+00  1.0953145178343229e+00 0.0000000000000000e+00 0.0000000000000000e+00  1.0952959750081452e+00 0.0000000000000000e+00 0.0000000000000000e+00  1.0952393304609924e+00 0.0000000000000000e+00 0.0000000000000000e+00  1.0952078696884682e+00 0.0000000000000000e+00 0.0000000000000000e+00  1.0951716390110886e+00 0.0000000000000000e+00 0.0000000000000000e+00  1.0951220745186994e+00 0.0000000000000000e+00 0.0000000000000000e+00  1.0950845514141210e+00 0.0000000000000000e+00 0.0000000000000000e+00  1.0950419867678405e+00 0.0000000000000000e+00 0.0000000000000000e+00  1.0950076064087104e+00 0.0000000000000000e+00 0.0000000000000000e+00  1.0949902869574277e+00 0.0000000000000000e+00 0.0000000000000000e+00  1.0949242090133979e+00 0.0000000000000000e+00 0.0000000000000000e+00  1.0948941024606711e+00 0.0000000000000000e+00 0.0000000000000000e+00  1.0948061658085848e+00 0.0000000000000000e+00 0.0000000000000000e+00  1.0948183305968626e+00 0.0000000000000000e+00 0.0000000000000000e+00  1.0947568984733800e+00 0.0000000000000000e+00 0.0000000000000000e+00  1.0947293639685283e+00 0.0000000000000000e+00 0.0000000000000000e+00  1.0946577048440482e+00 0.0000000000000000e+00 0.0000000000000000e+00  1.0946099736625328e+00 0.0000000000000000e+00 0.0000000000000000e+00  1.0945545019086520e+00 0.0000000000000000e+00 0.0000000000000000e+00  1.0944862103998523e+00 0.0000000000000000e+00 0.0000000000000000e+00  1.0944684492044383e+00 0.0000000000000000e+00 0.0000000000000000e+00  1.0944085647391295e+00 0.0000000000000000e+00 0.0000000000000000e+00  1.0943687897827119e+00 0.0000000000000000e+00 0.0000000000000000e+00  1.0943401522987410e+00 0.0000000000000000e+00 0.0000000000000000e+00  1.0942323571782266e+00 0.0000000000000000e+00 0.0000000000000000e+00  1.0942328140433508e+00 0.0000000000000000e+00 0.0000000000000000e+00  1.0941595651053972e+00 0.0000000000000000e+00 0.0000000000000000e+00  1.0941022085294743e+00 0.0000000000000000e+00 0.0000000000000000e+00  1.0940691935369662e+00 0.0000000000000000e+00 0.0000000000000000e+00  1.0939908845054878e+00 0.0000000000000000e+00 0.0000000000000000e+00  1.0939070404089224e+00 0.0000000000000000e+00 0.0000000000000000e+00  1.0938652748799991e+00 0.0000000000000000e+00 0.0000000000000000e+00  1.0938237028327440e+00 0.0000000000000000e+00 0.0000000000000000e+00  1.0937818572101783e+00 0.0000000000000000e+00 0.0000000000000000e+00  1.0936838560210476e+00 0.0000000000000000e+00 0.0000000000000000e+00  1.0935729759626041e+00 0.0000000000000000e+00 0.0000000000000000e+00  1.0935376745675747e+00 0.0000000000000000e+00 0.0000000000000000e+00  1.0934507847860426e+00 0.0000000000000000e+00 0.0000000000000000e+00  1.0934389428590032e+00 0.0000000000000000e+00 0.0000000000000000e+00  1.0933536705911098e+00 0.0000000000000000e+00 0.0000000000000000e+00  1.0932974769962360e+00 0.0000000000000000e+00 0.0000000000000000e+00  1.0932233780087968e+00 0.0000000000000000e+00 0.0000000000000000e+00  1.0931486540468300e+00 0.0000000000000000e+00 0.0000000000000000e+00  1.0931173043059386e+00 0.0000000000000000e+00 0.0000000000000000e+00  1.0930697676092098e+00 0.0000000000000000e+00 0.0000000000000000e+00  1.0929578064459227e+00 0.0000000000000000e+00 0.0000000000000000e+00  1.0929203899445770e+00 0.0000000000000000e+00 0.0000000000000000e+00  1.0928223107003141e+00 0.0000000000000000e+00 0.0000000000000000e+00  1.0927675260269332e+00 0.0000000000000000e+00 0.0000000000000000e+00  1.0926897310057981e+00 0.0000000000000000e+00 0.0000000000000000e+00  1.0925998319417556e+00 0.0000000000000000e+00 0.0000000000000000e+00  1.0925172343940133e+00 0.0000000000000000e+00 0.0000000000000000e+00  1.0924224119783654e+00 0.0000000000000000e+00 0.0000000000000000e+00  1.0923647776594894e+00 0.0000000000000000e+00 0.0000000000000000e+00  1.0922781002544306e+00 0.0000000000000000e+00 0.0000000000000000e+00  1.0921751401739779e+00 0.0000000000000000e+00 0.0000000000000000e+00  1.0920803897097895e+00 0.0000000000000000e+00 0.0000000000000000e+00  1.0920141241994101e+00 0.0000000000000000e+00 0.0000000000000000e+00  1.0919655603544063e+00 0.0000000000000000e+00 0.0000000000000000e+00  1.0918701823319092e+00 0.0000000000000000e+00 0.0000000000000000e+00  1.0917859497084510e+00 0.0000000000000000e+00 0.0000000000000000e+00  1.0916968119359929e+00 0.0000000000000000e+00 0.0000000000000000e+00  1.0916125292046710e+00 0.0000000000000000e+00 0.0000000000000000e+00  1.0915220405949444e+00 0.0000000000000000e+00 0.0000000000000000e+00  1.0914301165815554e+00 0.0000000000000000e+00 0.0000000000000000e+00  1.0913232475761194e+00 0.0000000000000000e+00 0.0000000000000000e+00  1.0912386648296966e+00 0.0000000000000000e+00 0.0000000000000000e+00  1.0911452638238184e+00 0.0000000000000000e+00 0.0000000000000000e+00  1.0910171403329718e+00 0.0000000000000000e+00 0.0000000000000000e+00  1.0909605456344342e+00 0.0000000000000000e+00 0.0000000000000000e+00  1.0908793228212696e+00 0.0000000000000000e+00 0.0000000000000000e+00  1.0907452470413721e+00 0.0000000000000000e+00 0.0000000000000000e+00  1.0906651184487113e+00 0.0000000000000000e+00 0.0000000000000000e+00  1.0905557789250504e+00 0.0000000000000000e+00 0.0000000000000000e+00  1.0904409219514422e+00 0.0000000000000000e+00 0.0000000000000000e+00  1.0903577825147230e+00 0.0000000000000000e+00 0.0000000000000000e+00  1.0902298724949682e+00 0.0000000000000000e+00 0.0000000000000000e+00  1.0901418204509183e+00 0.0000000000000000e+00 0.0000000000000000e+00  1.0900210588419463e+00 0.0000000000000000e+00 0.0000000000000000e+00  1.0898962226016975e+00 0.0000000000000000e+00 0.0000000000000000e+00  1.0897973534537797e+00 0.0000000000000000e+00 0.0000000000000000e+00  1.0896565791667758e+00 0.0000000000000000e+00 0.0000000000000000e+00  1.0895747860534659e+00 0.0000000000000000e+00 0.0000000000000000e+00  1.0894382804169886e+00 0.0000000000000000e+00 0.0000000000000000e+00  1.0893700016014078e+00 0.0000000000000000e+00 0.0000000000000000e+00  1.0892254542529038e+00 0.0000000000000000e+00 0.0000000000000000e+00  1.0891352813654192e+00 0.0000000000000000e+00 0.0000000000000000e+00  1.0889753963336313e+00 0.0000000000000000e+00 0.0000000000000000e+00  1.0888280767908620e+00 0.0000000000000000e+00 0.0000000000000000e+00  1.0886977861662239e+00 0.0000000000000000e+00 0.0000000000000000e+00  1.0886279066234394e+00 0.0000000000000000e+00 0.0000000000000000e+00  1.0884969610055863e+00 0.0000000000000000e+00 0.0000000000000000e+00  1.0883829664827427e+00 0.0000000000000000e+00 0.0000000000000000e+00  1.0882477310722947e+00 0.0000000000000000e+00 0.0000000000000000e+00  1.0881475595506471e+00 0.0000000000000000e+00 0.0000000000000000e+00  1.0879807290704144e+00 0.0000000000000000e+00 0.0000000000000000e+00  1.0878758264647552e+00 0.0000000000000000e+00 0.0000000000000000e+00  1.0877354832386115e+00 0.0000000000000000e+00 0.0000000000000000e+00  1.0876039840668799e+00 0.0000000000000000e+00 0.0000000000000000e+00  1.0874665277594222e+00 0.0000000000000000e+00 0.0000000000000000e+00  1.0873297280147936e+00 0.0000000000000000e+00 0.0000000000000000e+00  1.0871915702134161e+00 0.0000000000000000e+00 0.0000000000000000e+00  1.0870396796869719e+00 0.0000000000000000e+00 0.0000000000000000e+00  1.0869100599291956e+00 0.0000000000000000e+00 0.0000000000000000e+00  1.0867702381942346e+00 0.0000000000000000e+00 0.0000000000000000e+00  1.0866223051943589e+00 0.0000000000000000e+00 0.0000000000000000e+00  1.0864962951849886e+00 0.0000000000000000e+00 0.0000000000000000e+00  1.0863417761282559e+00 0.0000000000000000e+00 0.0000000000000000e+00  1.0861844375013328e+00 0.0000000000000000e+00 0.0000000000000000e+00  1.0860415308868974e+00 0.0000000000000000e+00 0.0000000000000000e+00  1.0858906850179360e+00 0.0000000000000000e+00 0.0000000000000000e+00  1.0857481700431211e+00 0.0000000000000000e+00 0.0000000000000000e+00  1.0855857154095745e+00 0.0000000000000000e+00 0.0000000000000000e+00  1.0854275506659812e+00 0.0000000000000000e+00 0.0000000000000000e+00  1.0852759286072264e+00 0.0000000000000000e+00 0.0000000000000000e+00  1.0851253723870762e+00 0.0000000000000000e+00 0.0000000000000000e+00  1.0849604617141706e+00 0.0000000000000000e+00 0.0000000000000000e+00  1.0848185616903849e+00 0.0000000000000000e+00 0.0000000000000000e+00  1.0846493421288335e+00 0.0000000000000000e+00 0.0000000000000000e+00  1.0844769341723606e+00 0.0000000000000000e+00 0.0000000000000000e+00  1.0843187863874504e+00 0.0000000000000000e+00 0.0000000000000000e+00  1.0841532787527077e+00 0.0000000000000000e+00 0.0000000000000000e+00  1.0839957500722157e+00 0.0000000000000000e+00 0.0000000000000000e+00  1.0838185951563524e+00 0.0000000000000000e+00 0.0000000000000000e+00  1.0836442838651406e+00 0.0000000000000000e+00 0.0000000000000000e+00  1.0834782352910746e+00 0.0000000000000000e+00 0.0000000000000000e+00  1.0833125018551717e+00 0.0000000000000000e+00 0.0000000000000000e+00  1.0831330894033624e+00 0.0000000000000000e+00 0.0000000000000000e+00  1.0829745426937987e+00 0.0000000000000000e+00 0.0000000000000000e+00  1.0827907649514761e+00 0.0000000000000000e+00 0.0000000000000000e+00  1.0826026943206168e+00 0.0000000000000000e+00 0.0000000000000000e+00  1.0824297502649656e+00 0.0000000000000000e+00 0.0000000000000000e+00  1.0822489906816888e+00 0.0000000000000000e+00 0.0000000000000000e+00  1.0820759609071504e+00 0.0000000000000000e+00 0.0000000000000000e+00  1.0818839318780848e+00 0.0000000000000000e+00 0.0000000000000000e+00  1.0816942656280866e+00 0.0000000000000000e+00 0.0000000000000000e+00  1.0815131450994866e+00 0.0000000000000000e+00 0.0000000000000000e+00  1.0813323702870705e+00 0.0000000000000000e+00 0.0000000000000000e+00  1.0811381635922981e+00 0.0000000000000000e+00 0.0000000000000000e+00  1.0809631575446110e+00 0.0000000000000000e+00 0.0000000000000000e+00  1.0807644642062761e+00 0.0000000000000000e+00 0.0000000000000000e+00  1.0805596524712424e+00 0.0000000000000000e+00 0.0000000000000000e+00  1.0803735134443899e+00 0.0000000000000000e+00 0.0000000000000000e+00  1.0801820201337371e+00 0.0000000000000000e+00 0.0000000000000000e+00  1.0799862252333476e+00 0.0000000000000000e+00 0.0000000000000000e+00  1.0797719213875787e+00 0.0000000000000000e+00 0.0000000000000000e+00  1.0795635614560635e+00 0.0000000000000000e+00 0.0000000000000000e+00  1.0793884389721660e+00 0.0000000000000000e+00 0.0000000000000000e+00  1.0791790877279008e+00 0.0000000000000000e+00 0.0000000000000000e+00  1.0789804919993646e+00 0.0000000000000000e+00 0.0000000000000000e+00  1.0787826357080139e+00 0.0000000000000000e+00 0.0000000000000000e+00  1.0785741704669942e+00 0.0000000000000000e+00 0.0000000000000000e+00  1.0783511774883969e+00 0.0000000000000000e+00 0.0000000000000000e+00  1.0781513647737546e+00 0.0000000000000000e+00 0.0000000000000000e+00  1.0779428115951419e+00 0.0000000000000000e+00 0.0000000000000000e+00  1.0777341250976309e+00 0.0000000000000000e+00 0.0000000000000000e+00  1.07