<?xml version="1.0"?>
<VTKFile type="UnstructuredGrid"  version="0.1"  >
<UnstructuredGrid>
<Piece  NumberOfPoints="25032" NumberOfCells="49121">
<Points>
<DataArray  type="Float64"  NumberOfComponents="3"  format="ascii">-5 0 0  40 0 0  40 10 0  0 10 0  0 1 0  -5 1 0  -5 0.75 0  5 0.75 0  5 1.25 0  0 1.25 0  0 1.075 0  1 1.075 0  1 0.925 0  -2 0.925 0  -2 1 0  0 1.5 0  40 1.5 0  -4.924999999999996 0 0  -4.849999999999993 0 0  -4.774999999999989 0 0  -4.699999999999985 0 0  -4.624999999999981 0 0  -4.549999999999978 0 0  -4.474999999999974 0 0  -4.39999999999997 0 0  -4.324999999999966 0 0  -4.249999999999963 0 0  -4.174999999999959 0 0  -4.099999999999955 0 0  -4.024999999999951 0 0  -3.949999999999947 0 0  -3.874999999999943 0 0  -3.79999999999994 0 0  -3.724999999999936 0 0  -3.649999999999932 0 0  -3.574999999999929 0 0  -3.499999999999925 0 0  -3.424999999999921 0 0  -3.349999999999917 0 0  -3.274999999999913 0 0  -3.19999999999993 0 0  -3.124999999999964 0 0  -3.049999999999997 0 0  -2.97500000000003 0 0  -2.900000000000063 0 0  -2.825000000000129 0 0  -2.750000000000199 0 0  -2.675000000000269 0 0  -2.600000000000339 0 0  -2.525000000000407 0 0  -2.450000000000458 0 0  -2.37500000000051 0 0  -2.300000000000562 0 0  -2.225000000000613 0 0  -2.150000000000647 0 0  -2.075000000000662 0 0  -2.000000000000676 0 0  -1.925000000000691 0 0  -1.850000000000705 0 0  -1.775000000000705 0 0  -1.700000000000702 0 0  -1.625000000000698 0 0  -1.550000000000694 0 0  -1.47500000000069 0 0  -1.400000000000686 0 0  -1.325000000000682 0 0  -1.250000000000679 0 0  -1.175000000000675 0 0  -1.100000000000671 0 0  -1.025000000000667 0 0  -0.9500000000006636 0 0  -0.875000000000659 0 0  -0.8000000000006553 0 0  -0.7250000000006516 0 0  -0.6500000000006478 0 0  -0.5750000000006441 0 0  -0.5000000000006395 0 0  -0.4250000000006366 0 0  -0.3500000000006329 0 0  -0.2750000000006292 0 0  -0.2000000000006246 0 0  -0.1250000000006208 0 0  -0.05000000000061799 0 0  0.02499999999938662 0 0  0.09999999999939035 0 0  0.1749999999993941 0 0  0.2499999999993978 0 0  0.3249999999993758 0 0  0.3999999999993431 0 0  0.4749999999993095 0 0  0.5499999999992768 0 0  0.6249999999992433 0 0  0.6999999999991351 0 0  0.7749999999990296 0 0  0.8499999999989214 0 0  0.9249999999988141 0 0  0.9999999999986944 0 0  1.074999999998552 0 0  1.149999999998407 0 0  1.224999999998261 0 0  1.299999999998119 0 0  1.374999999997974 0 0  1.44999999999783 0 0  1.524999999997685 0 0  1.599999999997541 0 0  1.674999999997397 0 0  1.749999999997253 0 0  1.824999999997109 0 0  1.899999999996965 0 0  1.974999999996821 0 0  2.049999999996677 0 0  2.124999999996531 0 0  2.199999999996388 0 0  2.274999999996243 0 0  2.349999999996101 0 0  2.424999999995955 0 0  2.49999999999581 0 0  2.574999999995668 0 0  2.649999999995523 0 0  2.724999999995378 0 0  2.799999999995234 0 0  2.874999999995089 0 0  2.949999999994946 0 0  3.024999999994801 0 0  3.099999999994658 0 0  3.174999999994514 0 0  3.249999999994371 0 0  3.324999999994224 0 0  3.39999999999408 0 0  3.474999999993937 0 0  3.549999999993792 0 0  3.624999999993648 0 0  3.699999999993503 0 0  3.774999999993359 0 0  3.849999999993216 0 0  3.924999999993071 0 0  3.999999999992927 0 0  4.074999999992784 0 0  4.149999999992639 0 0  4.224999999992495 0 0  4.29999999999235 0 0  4.374999999992207 0 0  4.449999999992063 0 0  4.524999999991918 0 0  4.599999999991773 0 0  4.674999999991629 0 0  4.749999999991484 0 0  4.82499999999134 0 0  4.899999999991195 0 0  4.974999999991052 0 0  5.049999999990908 0 0  5.124999999990763 0 0  5.199999999990617 0 0  5.274999999990472 0 0  5.349999999990329 0 0  5.424999999990185 0 0  5.49999999999004 0 0  5.574999999989895 0 0  5.649999999989751 0 0  5.724999999989608 0 0  5.799999999989463 0 0  5.874999999989317 0 0  5.949999999989172 0 0  6.024999999989028 0 0  6.099999999988885 0 0  6.17499999998874 0 0  6.249999999988596 0 0  6.324999999988451 0 0  6.399999999988305 0 0  6.474999999988162 0 0  6.549999999988019 0 0  6.624999999987873 0 0  6.699999999987728 0 0  6.774999999987587 0 0  6.849999999987441 0 0  6.924999999987296 0 0  6.999999999987153 0 0  7.074999999987007 0 0  7.149999999986864 0 0  7.224999999986718 0 0  7.299999999986575 0 0  7.374999999986429 0 0  7.449999999986284 0 0  7.524999999986141 0 0  7.599999999985997 0 0  7.674999999985852 0 0  7.749999999985706 0 0  7.824999999985563 0 0  7.89999999998542 0 0  7.974999999985274 0 0  8.049999999985129 0 0  8.124999999984986 0 0  8.19999999998484 0 0  8.274999999984697 0 0  8.349999999984554 0 0  8.424999999984408 0 0  8.499999999984261 0 0  8.574999999984119 0 0  8.649999999983976 0 0  8.724999999983829 0 0  8.799999999983685 0 0  8.874999999983542 0 0  8.949999999983397 0 0  9.024999999983253 0 0  9.099999999983106 0 0  9.174999999982964 0 0  9.249999999982817 0 0  9.324999999982674 0 0  9.399999999982532 0 0  9.474999999982385 0 0  9.549999999982241 0 0  9.624999999982094 0 0  9.699999999981955 0 0  9.774999999981809 0 0  9.849999999981662 0 0  9.924999999981519 0 0  9.999999999981375 0 0  10.07499999998123 0 0  10.14999999998109 0 0  10.22499999998094 0 0  10.2999999999808 0 0  10.37499999998065 0 0  10.44999999998051 0 0  10.52499999998036 0 0  10.59999999998022 0 0  10.67499999998007 0 0  10.74999999997993 0 0  10.82499999997979 0 0  10.89999999997964 0 0  10.9749999999795 0 0  11.04999999997935 0 0  11.12499999997921 0 0  11.19999999997906 0 0  11.27499999997892 0 0  11.34999999997877 0 0  11.42499999997863 0 0  11.49999999997848 0 0  11.57499999997834 0 0  11.6499999999782 0 0  11.72499999997805 0 0  11.79999999997791 0 0  11.87499999997776 0 0  11.94999999997762 0 0  12.02499999997748 0 0  12.09999999997733 0 0  12.17499999997719 0 0  12.24999999997704 0 0  12.3249999999769 0 0  12.39999999997675 0 0  12.47499999997661 0 0  12.54999999997646 0 0  12.62499999997632 0 0  12.69999999997617 0 0  12.77499999997603 0 0  12.84999999997589 0 0  12.92499999997574 0 0  12.9999999999756 0 0  13.07499999997545 0 0  13.14999999997531 0 0  13.22499999997516 0 0  13.29999999997502 0 0  13.37499999997488 0 0  13.44999999997473 0 0  13.52499999997459 0 0  13.59999999997444 0 0  13.6749999999743 0 0  13.74999999997415 0 0  13.82499999997401 0 0  13.89999999997386 0 0  13.97499999997372 0 0  14.04999999997358 0 0  14.12499999997343 0 0  14.19999999997329 0 0  14.27499999997314 0 0  14.349999999973 0 0  14.42499999997285 0 0  14.49999999997271 0 0  14.57499999997257 0 0  14.64999999997242 0 0  14.72499999997228 0 0  14.79999999997213 0 0  14.87499999997199 0 0  14.94999999997185 0 0  15.0249999999717 0 0  15.09999999997156 0 0  15.17499999997142 0 0  15.24999999997127 0 0  15.32499999997113 0 0  15.39999999997098 0 0  15.47499999997084 0 0  15.54999999997069 0 0  15.62499999997055 0 0  15.69999999997041 0 0  15.77499999997026 0 0  15.84999999997012 0 0  15.92499999996997 0 0  15.99999999996983 0 0  16.07499999996969 0 0  16.14999999996954 0 0  16.2249999999694 0 0  16.29999999996926 0 0  16.37499999996911 0 0  16.44999999996897 0 0  16.52499999996882 0 0  16.59999999996868 0 0  16.67499999996853 0 0  16.74999999996839 0 0  16.82499999996825 0 0  16.8999999999681 0 0  16.97499999996796 0 0  17.04999999996781 0 0  17.12499999996767 0 0  17.19999999996763 0 0  17.27499999996763 0 0  17.34999999996764 0 0  17.42499999996764 0 0  17.49999999996764 0 0  17.57499999996794 0 0  17.64999999996824 0 0  17.72499999996854 0 0  17.79999999996884 0 0  17.87499999996919 0 0  17.94999999996964 0 0  18.02499999997008 0 0  18.09999999997053 0 0  18.17499999997098 0 0  18.24999999997143 0 0  18.32499999997188 0 0  18.39999999997232 0 0  18.47499999997277 0 0  18.54999999997322 0 0  18.62499999997367 0 0  18.69999999997412 0 0  18.77499999997456 0 0  18.84999999997501 0 0  18.92499999997546 0 0  18.99999999997591 0 0  19.07499999997636 0 0  19.14999999997681 0 0  19.22499999997725 0 0  19.2999999999777 0 0  19.37499999997815 0 0  19.4499999999786 0 0  19.52499999997904 0 0  19.5999999999795 0 0  19.67499999997995 0 0  19.74999999998039 0 0  19.82499999998084 0 0  19.89999999998129 0 0  19.97499999998174 0 0  20.04999999998218 0 0  20.12499999998263 0 0  20.19999999998308 0 0  20.27499999998353 0 0  20.34999999998398 0 0  20.42499999998443 0 0  20.49999999998487 0 0  20.57499999998532 0 0  20.64999999998576 0 0  20.72499999998622 0 0  20.79999999998667 0 0  20.87499999998711 0 0  20.94999999998756 0 0  21.024999999988 0 0  21.09999999998846 0 0  21.17499999998891 0 0  21.24999999998935 0 0  21.3249999999898 0 0  21.39999999999025 0 0  21.4749999999907 0 0  21.54999999999115 0 0  21.62499999999159 0 0  21.69999999999204 0 0  21.77499999999249 0 0  21.84999999999294 0 0  21.92499999999339 0 0  21.99999999999383 0 0  22.07499999999428 0 0  22.14999999999473 0 0  22.22499999999518 0 0  22.29999999999563 0 0  22.37499999999607 0 0  22.44999999999652 0 0  22.52499999999697 0 0  22.59999999999742 0 0  22.67499999999787 0 0  22.74999999999831 0 0  22.82499999999876 0 0  22.89999999999922 0 0  22.97499999999966 0 0  23.05000000000011 0 0  23.12500000000055 0 0  23.200000000001 0 0  23.27500000000145 0 0  23.3500000000019 0 0  23.42500000000235 0 0  23.5000000000028 0 0  23.57500000000324 0 0  23.65000000000369 0 0  23.72500000000414 0 0  23.80000000000459 0 0  23.87500000000503 0 0  23.95000000000548 0 0  24.02500000000594 0 0  24.10000000000638 0 0  24.17500000000683 0 0  24.25000000000728 0 0  24.32500000000773 0 0  24.40000000000817 0 0  24.47500000000862 0 0  24.55000000000907 0 0  24.62500000000952 0 0  24.70000000000997 0 0  24.77500000001042 0 0  24.85000000001086 0 0  24.92500000001131 0 0  25.00000000001176 0 0  25.07500000001221 0 0  25.15000000001266 0 0  25.2250000000131 0 0  25.30000000001355 0 0  25.37500000001399 0 0  25.45000000001445 0 0  25.5250000000149 0 0  25.60000000001534 0 0  25.67500000001579 0 0  25.75000000001624 0 0  25.82500000001669 0 0  25.90000000001714 0 0  25.97500000001758 0 0  26.05000000001803 0 0  26.12500000001848 0 0  26.2000000000189
[...]
<PointData  Vectors="f_6-0"> 
<DataArray  type="Float64"  Name="f_6-0"  NumberOfComponents="3" format="ascii">9.9990920426259511e-01 0.0000000000000000e+00 0.0000000000000000e+00  9.6115180172852832e-01 0.0000000000000000e+00 0.0000000000000000e+00  8.7588538524293799e-04 -9.4902469462097611e-04 -1.8032198510934825e-05  1.0000000000001092e-36 0.0000000000000000e+00 0.0000000000000000e+00  1.0000000000000878e-36 0.0000000000000000e+00 0.0000000000000000e+00  1.0000000000001092e-36 0.0000000000000000e+00 0.0000000000000000e+00  8.4828363995751288e-01 0.0000000000000000e+00 1.0603545499458307e-02  7.1936265094344209e-01 2.8905549611046616e-03 7.3118778547411455e-03  1.0370552722906476e-01 -3.8670722116831741e-03 1.1427579553743195e-03  1.0000000000000023e-36 0.0000000000000000e+00 0.0000000000000000e+00  1.0000000000000023e-36 0.0000000000000000e+00 0.0000000000000000e+00  9.5234844371201610e-02 -7.2550961729848252e-03 1.1058073529495655e-03  3.3481783635324291e-01 2.0068848076479472e-03 3.3141109508349779e-03  3.0052294766659687e-01 -4.3646706323469765e-04 2.8334630432511579e-03  1.0000000000000023e-36 0.0000000000000000e+00 0.0000000000000000e+00  1.0000000000000023e-36 0.0000000000000000e+00 0.0000000000000000e+00  2.1190909160963967e-01 -1.5502339122005097e-04 1.7642214774987420e-03  1.0000116991245602e+00 0.0000000000000000e+00 0.0000000000000000e+00  1.0002600814772311e+00 0.0000000000000000e+00 0.0000000000000000e+00  1.0008457708964027e+00 0.0000000000000000e+00 0.0000000000000000e+00  1.0016115789513638e+00 0.0000000000000000e+00 0.0000000000000000e+00  1.0024871020181947e+00 0.0000000000000000e+00 0.0000000000000000e+00  1.0036176168230904e+00 0.0000000000000000e+00 0.0000000000000000e+00  1.0048112533104301e+00 0.0000000000000000e+00 0.0000000000000000e+00  1.0062188100191489e+00 0.0000000000000000e+00 0.0000000000000000e+00  1.0076762371712631e+00 0.0000000000000000e+00 0.0000000000000000e+00  1.0092866687925415e+00 0.0000000000000000e+00 0.0000000000000000e+00  1.0108929402816667e+00 0.0000000000000000e+00 0.0000000000000000e+00  1.0126425638846306e+00 0.0000000000000000e+00 0.0000000000000000e+00  1.0143780349452851e+00 0.0000000000000000e+00 0.0000000000000000e+00  1.0162000525308954e+00 0.0000000000000000e+00 0.0000000000000000e+00  1.0179967556289080e+00 0.0000000000000000e+00 0.0000000000000000e+00  1.0198563376894592e+00 0.0000000000000000e+00 0.0000000000000000e+00  1.0216921259384462e+00 0.0000000000000000e+00 0.0000000000000000e+00  1.0235576807190936e+00 0.0000000000000000e+00 0.0000000000000000e+00  1.0254063759213214e+00 0.0000000000000000e+00 0.0000000000000000e+00  1.0272723916781084e+00 0.0000000000000000e+00 0.0000000000000000e+00  1.0291147993312990e+00 0.0000000000000000e+00 0.0000000000000000e+00  1.0309600971380135e+00 0.0000000000000000e+00 0.0000000000000000e+00  1.0328028336783461e+00 0.0000000000000000e+00 0.0000000000000000e+00  1.0346189642780852e+00 0.0000000000000000e+00 0.0000000000000000e+00  1.0364347033325636e+00 0.0000000000000000e+00 0.0000000000000000e+00  1.0382248280505051e+00 0.0000000000000000e+00 0.0000000000000000e+00  1.0400212485868785e+00 0.0000000000000000e+00 0.0000000000000000e+00  1.0417979590570441e+00 0.0000000000000000e+00 0.0000000000000000e+00  1.0435570321503020e+00 0.0000000000000000e+00 0.0000000000000000e+00  1.0453078558760498e+00 0.0000000000000000e+00 0.0000000000000000e+00  1.0470398087661905e+00 0.0000000000000000e+00 0.0000000000000000e+00  1.0487645795545011e+00 0.0000000000000000e+00 0.0000000000000000e+00  1.0504759850420460e+00 0.0000000000000000e+00 0.0000000000000000e+00  1.0521700977005914e+00 0.0000000000000000e+00 0.0000000000000000e+00  1.0538541980014704e+00 0.0000000000000000e+00 0.0000000000000000e+00  1.0555330799361176e+00 0.0000000000000000e+00 0.0000000000000000e+00  1.0571993725552247e+00 0.0000000000000000e+00 0.0000000000000000e+00  1.0588434662907682e+00 0.0000000000000000e+00 0.0000000000000000e+00  1.0604813800548170e+00 0.0000000000000000e+00 0.0000000000000000e+00  1.0620973633676383e+00 0.0000000000000000e+00 0.0000000000000000e+00  1.0637232427001340e+00 0.0000000000000000e+00 0.0000000000000000e+00  1.0653265891228023e+00 0.0000000000000000e+00 0.0000000000000000e+00  1.0669169297084191e+00 0.0000000000000000e+00 0.0000000000000000e+00  1.0684951667795479e+00 0.0000000000000000e+00 0.0000000000000000e+00  1.0700607340739381e+00 0.0000000000000000e+00 0.0000000000000000e+00  1.0716182557553200e+00 0.0000000000000000e+00 0.0000000000000000e+00  1.0731629652417891e+00 0.0000000000000000e+00 0.0000000000000000e+00  1.0746836212554522e+00 0.0000000000000000e+00 0.0000000000000000e+00  1.0762003703510659e+00 0.0000000000000000e+00 0.0000000000000000e+00  1.0777109943440812e+00 0.0000000000000000e+00 0.0000000000000000e+00  1.0791983777921201e+00 0.0000000000000000e+00 0.0000000000000000e+00  1.0806565468152127e+00 0.0000000000000000e+00 0.0000000000000000e+00  1.0821044059359992e+00 0.0000000000000000e+00 0.0000000000000000e+00  1.0835097762224315e+00 0.0000000000000000e+00 0.0000000000000000e+00  1.0849141134036788e+00 0.0000000000000000e+00 0.0000000000000000e+00  1.0862753064576409e+00 0.0000000000000000e+00 0.0000000000000000e+00  1.0875869404467793e+00 0.0000000000000000e+00 0.0000000000000000e+00  1.0888658595150036e+00 0.0000000000000000e+00 0.0000000000000000e+00  1.0900663925021739e+00 0.0000000000000000e+00 0.0000000000000000e+00  1.0912178377103781e+00 0.0000000000000000e+00 0.0000000000000000e+00  1.0922966866446890e+00 0.0000000000000000e+00 0.0000000000000000e+00  1.0932611269822714e+00 0.0000000000000000e+00 0.0000000000000000e+00  1.0941433102613611e+00 0.0000000000000000e+00 0.0000000000000000e+00  1.0949434100637814e+00 0.0000000000000000e+00 0.0000000000000000e+00  1.0956042228036451e+00 0.0000000000000000e+00 0.0000000000000000e+00  1.0961508109942522e+00 0.0000000000000000e+00 0.0000000000000000e+00  1.0966023714301198e+00 0.0000000000000000e+00 0.0000000000000000e+00  1.0969432141073903e+00 0.0000000000000000e+00 0.0000000000000000e+00  1.0972017955161792e+00 0.0000000000000000e+00 0.0000000000000000e+00  1.0974011892089555e+00 0.0000000000000000e+00 0.0000000000000000e+00  1.0975047959244961e+00 0.0000000000000000e+00 0.0000000000000000e+00  1.0975873194171084e+00 0.0000000000000000e+00 0.0000000000000000e+00  1.0976077958109764e+00 0.0000000000000000e+00 0.0000000000000000e+00  1.0976234475375606e+00 0.0000000000000000e+00 0.0000000000000000e+00  1.0976228753912156e+00 0.0000000000000000e+00 0.0000000000000000e+00  1.0975847669689238e+00 0.0000000000000000e+00 0.0000000000000000e+00  1.0975668034400112e+00 0.0000000000000000e+00 0.0000000000000000e+00  1.0975538507259177e+00 0.0000000000000000e+00 0.0000000000000000e+00  1.0975320343204458e+00 0.0000000000000000e+00 0.0000000000000000e+00  1.0974965450577903e+00 0.0000000000000000e+00 0.0000000000000000e+00  1.0974651382337364e+00 0.0000000000000000e+00 0.0000000000000000e+00  1.0974284073288851e+00 0.0000000000000000e+00 0.0000000000000000e+00  1.0974217891880151e+00 0.0000000000000000e+00 0.0000000000000000e+00  1.0973973642900652e+00 0.0000000000000000e+00 0.0000000000000000e+00  1.0973753021879000e+00 0.0000000000000000e+00 0.0000000000000000e+00  1.0973453339439896e+00 0.0000000000000000e+00 0.0000000000000000e+00  1.0973199260395583e+00 0.0000000000000000e+00 0.0000000000000000e+00  1.0973016492619487e+00 0.0000000000000000e+00 0.0000000000000000e+00  1.0972815966832148e+00 0.0000000000000000e+00 0.0000000000000000e+00  1.0972427629152639e+00 0.0000000000000000e+00 0.0000000000000000e+00  1.0972177326904919e+00 0.0000000000000000e+00 0.0000000000000000e+00  1.0972177143372139e+00 0.0000000000000000e+00 0.0000000000000000e+00  1.0971973842510143e+00 0.0000000000000000e+00 0.0000000000000000e+00  1.0971662862139391e+00 0.0000000000000000e+00 0.0000000000000000e+00  1.0971402926690785e+00 0.0000000000000000e+00 0.0000000000000000e+00  1.0970987275543163e+00 0.0000000000000000e+00 0.0000000000000000e+00  1.0971021921371391e+00 0.0000000000000000e+00 0.0000000000000000e+00  1.0970753411509564e+00 0.0000000000000000e+00 0.0000000000000000e+00  1.0970553875406654e+00 0.0000000000000000e+00 0.0000000000000000e+00  1.0970228577980599e+00 0.0000000000000000e+00 0.0000000000000000e+00  1.0969944103511053e+00 0.0000000000000000e+00 0.0000000000000000e+00  1.0969708912211527e+00 0.0000000000000000e+00 0.0000000000000000e+00  1.0969486521917169e+00 0.0000000000000000e+00 0.0000000000000000e+00  1.0969005708909003e+00 0.0000000000000000e+00 0.0000000000000000e+00  1.0968711646853138e+00 0.0000000000000000e+00 0.0000000000000000e+00  1.0968675009564852e+00 0.0000000000000000e+00 0.0000000000000000e+00  1.0968408944851193e+00 0.0000000000000000e+00 0.0000000000000000e+00  1.0968025461570976e+00 0.0000000000000000e+00 0.0000000000000000e+00  1.0967680880240351e+00 0.0000000000000000e+00 0.0000000000000000e+00  1.0967181477098615e+00 0.0000000000000000e+00 0.0000000000000000e+00  1.0967172109681556e+00 0.0000000000000000e+00 0.0000000000000000e+00  1.0966830458811931e+00 0.0000000000000000e+00 0.0000000000000000e+00  1.0966557077272072e+00 0.0000000000000000e+00 0.0000000000000000e+00  1.0966142391918912e+00 0.0000000000000000e+00 0.0000000000000000e+00  1.0965769729441588e+00 0.0000000000000000e+00 0.0000000000000000e+00  1.0965457914845886e+00 0.0000000000000000e+00 0.0000000000000000e+00  1.0965162105690993e+00 0.0000000000000000e+00 0.0000000000000000e+00  1.0964596861229707e+00 0.0000000000000000e+00 0.0000000000000000e+00  1.0964225764001188e+00 0.0000000000000000e+00 0.0000000000000000e+00  1.0964096096734339e+00 0.0000000000000000e+00 0.0000000000000000e+00  1.0963732939223014e+00 0.0000000000000000e+00 0.0000000000000000e+00  1.0963256904938885e+00 0.0000000000000000e+00 0.0000000000000000e+00  1.0962796694304333e+00 0.0000000000000000e+00 0.0000000000000000e+00  1.0962229629233191e+00 0.0000000000000000e+00 0.0000000000000000e+00  1.0962088385046442e+00 0.0000000000000000e+00 0.0000000000000000e+00  1.0961681044139622e+00 0.0000000000000000e+00 0.0000000000000000e+00  1.0961298418166101e+00 0.0000000000000000e+00 0.0000000000000000e+00  1.0960752453196176e+00 0.0000000000000000e+00 0.0000000000000000e+00  1.0960225341219016e+00 0.0000000000000000e+00 0.0000000000000000e+00  1.0959788544797548e+00 0.0000000000000000e+00 0.0000000000000000e+00  1.0959144274388206e+00 0.0000000000000000e+00 0.0000000000000000e+00  1.0958866838209729e+00 0.0000000000000000e+00 0.0000000000000000e+00  1.0958403320168895e+00 0.0000000000000000e+00 0.0000000000000000e+00  1.0957913216880812e+00 0.0000000000000000e+00 0.0000000000000000e+00  1.0957577693924916e+00 0.0000000000000000e+00 0.0000000000000000e+00  1.0956934239037133e+00 0.0000000000000000e+00 0.0000000000000000e+00  1.0956448813308020e+00 0.0000000000000000e+00 0.0000000000000000e+00  1.0955970238658583e+00 0.0000000000000000e+00 0.0000000000000000e+00  1.0955564713861103e+00 0.0000000000000000e+00 0.0000000000000000e+00  1.0955025393012241e+00 0.0000000000000000e+00 0.0000000000000000e+00  1.0954398485313508e+00 0.0000000000000000e+00 0.0000000000000000e+00  1.0953591087886614e+00 0.0000000000000000e+00 0.0000000000000000e+00  1.0953300287714074e+00 0.0000000000000000e+00 0.0000000000000000e+00  1.0952713265486174e+00 0.0000000000000000e+00 0.0000000000000000e+00  1.0952238556802123e+00 0.0000000000000000e+00 0.0000000000000000e+00  1.0951506692362867e+00 0.0000000000000000e+00 0.0000000000000000e+00  1.0950412361337496e+00 0.0000000000000000e+00 0.0000000000000000e+00  1.0950170887327482e+00 0.0000000000000000e+00 0.0000000000000000e+00  1.0949334380682976e+00 0.0000000000000000e+00 0.0000000000000000e+00  1.0948824370160162e+00 0.0000000000000000e+00 0.0000000000000000e+00  1.0948320441901980e+00 0.0000000000000000e+00 0.0000000000000000e+00  1.0947849631343338e+00 0.0000000000000000e+00 0.0000000000000000e+00  1.0947117544643408e+00 0.0000000000000000e+00 0.0000000000000000e+00  1.0946230309714764e+00 0.0000000000000000e+00 0.0000000000000000e+00  1.0945950842056376e+00 0.0000000000000000e+00 0.0000000000000000e+00  1.0945408980438667e+00 0.0000000000000000e+00 0.0000000000000000e+00  1.0944591677630859e+00 0.0000000000000000e+00 0.0000000000000000e+00  1.0943965857677331e+00 0.0000000000000000e+00 0.0000000000000000e+00  1.0943163212232807e+00 0.0000000000000000e+00 0.0000000000000000e+00  1.0942504432547731e+00 0.0000000000000000e+00 0.0000000000000000e+00  1.0941791275207970e+00 0.0000000000000000e+00 0.0000000000000000e+00  1.0941082331548124e+00 0.0000000000000000e+00 0.0000000000000000e+00  1.0940186852381024e+00 0.0000000000000000e+00 0.0000000000000000e+00  1.0939343062986833e+00 0.0000000000000000e+00 0.0000000000000000e+00  1.0938514220579432e+00 0.0000000000000000e+00 0.0000000000000000e+00  1.0937773120287280e+00 0.0000000000000000e+00 0.0000000000000000e+00  1.0937009986238979e+00 0.0000000000000000e+00 0.0000000000000000e+00  1.0935956763232961e+00 0.0000000000000000e+00 0.0000000000000000e+00  1.0935331807480699e+00 0.0000000000000000e+00 0.0000000000000000e+00  1.0934792868849537e+00 0.0000000000000000e+00 0.0000000000000000e+00  1.0933857069270025e+00 0.0000000000000000e+00 0.0000000000000000e+00  1.0933027469025081e+00 0.0000000000000000e+00 0.0000000000000000e+00  1.0932153803830362e+00 0.0000000000000000e+00 0.0000000000000000e+00  1.0931354428495290e+00 0.0000000000000000e+00 0.0000000000000000e+00  1.0930390948907156e+00 0.0000000000000000e+00 0.0000000000000000e+00  1.0929526789326907e+00 0.0000000000000000e+00 0.0000000000000000e+00  1.0928475110759477e+00 0.0000000000000000e+00 0.0000000000000000e+00  1.0927773106081677e+00 0.0000000000000000e+00 0.0000000000000000e+00  1.0926698879365215e+00 0.0000000000000000e+00 0.0000000000000000e+00  1.0925599675975923e+00 0.0000000000000000e+00 0.0000000000000000e+00  1.0924907691564125e+00 0.0000000000000000e+00 0.0000000000000000e+00  1.0924098243282805e+00 0.0000000000000000e+00 0.0000000000000000e+00  1.0922838517354845e+00 0.0000000000000000e+00 0.0000000000000000e+00  1.0922001947466431e+00 0.0000000000000000e+00 0.0000000000000000e+00  1.0920987440009855e+00 0.0000000000000000e+00 0.0000000000000000e+00  1.0919886897566160e+00 0.0000000000000000e+00 0.0000000000000000e+00  1.0918944131967234e+00 0.0000000000000000e+00 0.0000000000000000e+00  1.0917845555332626e+00 0.0000000000000000e+00 0.0000000000000000e+00  1.0916913715356054e+00 0.0000000000000000e+00 0.0000000000000000e+00  1.0915721483350851e+00 0.0000000000000000e+00 0.0000000000000000e+00  1.0914486180231855e+00 0.0000000000000000e+00 0.0000000000000000e+00  1.0913452357140407e+00 0.0000000000000000e+00 0.0000000000000000e+00  1.0912228033437037e+00 0.0000000000000000e+00 0.0000000000000000e+00  1.0911218462953518e+00 0.0000000000000000e+00 0.0000000000000000e+00  1.0910218369085090e+00 0.0000000000000000e+00 0.0000000000000000e+00  1.0909163663761963e+00 0.0000000000000000e+00 0.0000000000000000e+00  1.0907928015888877e+00 0.0000000000000000e+00 0.0000000000000000e+00  1.0906911512295323e+00 0.0000000000000000e+00 0.0000000000000000e+00  1.0905559531475686e+00 0.0000000000000000e+00 0.0000000000000000e+00  1.0903924982128808e+00 0.0000000000000000e+00 0.0000000000000000e+00  1.0902886669431719e+00 0.0000000000000000e+00 0.0000000000000000e+00  1.0901877056490650e+00 0.0000000000000000e+00 0.0000000000000000e+00  1.0900751460491183e+00 0.0000000000000000e+00 0.0000000000000000e+00  1.0899614663533208e+00 0.0000000000000000e+00 0.0000000000000000e+00  1.0898252467458414e+00 0.0000000000000000e+00 0.0000000000000000e+00  1.0897187177675500e+00 0.0000000000000000e+00 0.0000000000000000e+00  1.0895624174100296e+00 0.0000000000000000e+00 0.0000000000000000e+00  1.0894488605617862e+00 0.0000000000000000e+00 0.0000000000000000e+00  1.0893189315024034e+00 0.0000000000000000e+00 0.0000000000000000e+00  1.0891948550890789e+00 0.0000000000000000e+00 0.0000000000000000e+00  1.0890493289655623e+00 0.0000000000000000e+00 0.0000000000000000e+00  1.0889199330169856e+00 0.0000000000000000e+00 0.0000000000000000e+00  1.0887722623186911e+00 0.0000000000000000e+00 0.0000000000000000e+00  1.0886280193497275e+00 0.0000000000000000e+00 0.0000000000000000e+00  1.0885061338469451e+00 0.0000000000000000e+00 0.0000000000000000e+00  1.0883605774329737e+00 0.0000000000000000e+00 0.0000000000000000e+00  1.0882169887058193e+00 0.0000000000000000e+00 0.0000000000000000e+00  1.0880847915970062e+00 0.0000000000000000e+00 0.0000000000000000e+00  1.0879455082640175e+00 0.0000000000000000e+00 0.0000000000000000e+00  1.0877796149141941e+00 0.0000000000000000e+00 0.0000000000000000e+00  1.0876417465750301e+00 0.0000000000000000e+00 0.0000000000000000e+00  1.0874942781900196e+00 0.0000000000000000e+00 0.0000000000000000e+00  1.0873496944169452e+00 0.0000000000000000e+00 0.0000000000000000e+00  1.0871860491508190e+00 0.0000000000000000e+00 0.0000000000000000e+00  1.0870268202720494e+00 0.0000000000000000e+00 0.0000000000000000e+00  1.0868885493382681e+00 0.0000000000000000e+00 0.0000000000000000e+00  1.0867281422256863e+00 0.0000000000000000e+00 0.0000000000000000e+00  1.0865698597387636e+00 0.0000000000000000e+00 0.0000000000000000e+00  1.0864213164858532e+00 0.0000000000000000e+00 0.0000000000000000e+00  1.0862664400976838e+00 0.0000000000000000e+00 0.0000000000000000e+00  1.0860862087312013e+00 0.0000000000000000e+00 0.0000000000000000e+00  1.0859324717521135e+00 0.0000000000000000e+00 0.0000000000000000e+00  1.0857701684986005e+00 0.0000000000000000e+00 0.0000000000000000e+00  1.0856104939346329e+00 0.0000000000000000e+00 0.0000000000000000e+00  1.0854317890841945e+00 0.0000000000000000e+00 0.0000000000000000e+00  1.0852571163108109e+00 0.0000000000000000e+00 0.0000000000000000e+00  1.0851032041056798e+00 0.0000000000000000e+00 0.0000000000000000e+00  1.0849282752724880e+00 0.0000000000000000e+00 0.0000000000000000e+00  1.0847549744292226e+00 0.0000000000000000e+00 0.0000000000000000e+00  1.0845901091034176e+00 0.0000000000000000e+00 0.0000000000000000e+00  1.0844195140736770e+00 0.0000000000000000e+00 0.0000000000000000e+00  1.0842244092939268e+00 0.0000000000000000e+00 0.0000000000000000e+00  1.0840553037436980e+00 0.0000000000000000e+00 0.0000000000000000e+00  1.0838776363657032e+00 0.0000000000000000e+00 0.0000000000000000e+00  1.0837023770124659e+00 0.0000000000000000e+00 0.0000000000000000e+00  1.0835088820418881e+00 0.0000000000000000e+00 0.0000000000000000e+00  1.0833187160032818e+00 0.0000000000000000e+00 0.0000000000000000e+00  1.0831491194697258e+00 0.0000000000000000e+00 0.0000000000000000e+00  1.0829593831619413e+00 0.0000000000000000e+00 0.0000000000000000e+00  1.0827710560304002e+00 0.0000000000000000e+00 0.0000000000000000e+00  1.0825898592947907e+00 0.0000000000000000e+00 0.0000000000000000e+00  1.0824035213940599e+00 0.0000000000000000e+00 0.0000000000000000e+00  1.0821927332129546e+00 0.0000000000000000e+00 0.0000000000000000e+00  1.0820094857642679e+00 0.0000000000000000e+00 0.0000000000000000e+00  1.0818192165164098e+00 0.0000000000000000e+00 0.0000000000000000e+00  1.0816243606601998e+00 0.0000000000000000e+00 0.0000000000000000e+00  1.0814082296044636e+00 0.0000000000000000e+00 0.0000000000000000e+00  1.0812081192636023e+00 0.0000000000000000e+00 0.0000000000000000e+00  1.0810259308977999e+00 0.0000000000000000e+00 0.0000000000000000e+00  1.0808214899695734e+00 0.0000000000000000e+00 0.0000000000000000e+00  1.0806189205163461e+00 0.0000000000000000e+00 0.0000000000000000e+00  1.0804213741137518e+00 0.0000000000000000e+00 0.0000000000000000e+00  1.0802197310577082e+00 0.0000000000000000e+00 0.0000000000000000e+00  1.0799942465110344e+00 0.0000000000000000e+00 0.0000000000000000e+00  1.0797956726727445e+00 0.0000000000000000e+00 0.0000000000000000e+00  1.0795895217924070e+00 0.0000000000000000e+00 0.0000000000000000e+00  1.0793800844124075e+00 0.0000000000000000e+00 0.0000000000000000e+00  1.07