<?xml version="1.0"?>
<VTKFile type="UnstructuredGrid"  version="0.1"  >
<UnstructuredGrid>
<Piece  NumberOfPoints="25032" NumberOfCells="49121">
<Points>
<DataArray  type="Float64"  NumberOfComponents="3"  format="ascii">-5 0 0  40 0 0  40 10 0  0 10 0  0 1 0  -5 1 0  -5 0.75 0  5 0.75 0  5 1.25 0  0 1.25 0  0 1.075 0  1 1.075 0  1 0.925 0  -2 0.925 0  -2 1 0  0 1.5 0  40 1.5 0  -4.924999999999996 0 0  -4.849999999999993 0 0  -4.774999999999989 0 0  -4.699999999999985 0 0  -4.624999999999981 0 0  -4.549999999999978 0 0  -4.474999999999974 0 0  -4.39999999999997 0 0  -4.324999999999966 0 0  -4.249999999999963 0 0  -4.174999999999959 0 0  -4.099999999999955 0 0  -4.024999999999951 0 0  -3.949999999999947 0 0  -3.874999999999943 0 0  -3.79999999999994 0 0  -3.724999999999936 0 0  -3.649999999999932 0 0  -3.574999999999929 0 0  -3.499999999999925 0 0  -3.424999999999921 0 0  -3.349999999999917 0 0  -3.274999999999913 0 0  -3.19999999999993 0 0  -3.124999999999964 0 0  -3.049999999999997 0 0  -2.97500000000003 0 0  -2.900000000000063 0 0  -2.825000000000129 0 0  -2.750000000000199 0 0  -2.675000000000269 0 0  -2.600000000000339 0 0  -2.525000000000407 0 0  -2.450000000000458 0 0  -2.37500000000051 0 0  -2.300000000000562 0 0  -2.225000000000613 0 0  -2.150000000000647 0 0  -2.075000000000662 0 0  -2.000000000000676 0 0  -1.925000000000691 0 0  -1.850000000000705 0 0  -1.775000000000705 0 0  -1.700000000000702 0 0  -1.625000000000698 0 0  -1.550000000000694 0 0  -1.47500000000069 0 0  -1.400000000000686 0 0  -1.325000000000682 0 0  -1.250000000000679 0 0  -1.175000000000675 0 0  -1.100000000000671 0 0  -1.025000000000667 0 0  -0.9500000000006636 0 0  -0.875000000000659 0 0  -0.8000000000006553 0 0  -0.7250000000006516 0 0  -0.6500000000006478 0 0  -0.5750000000006441 0 0  -0.5000000000006395 0 0  -0.4250000000006366 0 0  -0.3500000000006329 0 0  -0.2750000000006292 0 0  -0.2000000000006246 0 0  -0.1250000000006208 0 0  -0.05000000000061799 0 0  0.02499999999938662 0 0  0.09999999999939035 0 0  0.1749999999993941 0 0  0.2499999999993978 0 0  0.3249999999993758 0 0  0.3999999999993431 0 0  0.4749999999993095 0 0  0.5499999999992768 0 0  0.6249999999992433 0 0  0.6999999999991351 0 0  0.7749999999990296 0 0  0.8499999999989214 0 0  0.9249999999988141 0 0  0.9999999999986944 0 0  1.074999999998552 0 0  1.149999999998407 0 0  1.224999999998261 0 0  1.299999999998119 0 0  1.374999999997974 0 0  1.44999999999783 0 0  1.524999999997685 0 0  1.599999999997541 0 0  1.674999999997397 0 0  1.749999999997253 0 0  1.824999999997109 0 0  1.899999999996965 0 0  1.974999999996821 0 0  2.049999999996677 0 0  2.124999999996531 0 0  2.199999999996388 0 0  2.274999999996243 0 0  2.349999999996101 0 0  2.424999999995955 0 0  2.49999999999581 0 0  2.574999999995668 0 0  2.649999999995523 0 0  2.724999999995378 0 0  2.799999999995234 0 0  2.874999999995089 0 0  2.949999999994946 0 0  3.024999999994801 0 0  3.099999999994658 0 0  3.174999999994514 0 0  3.249999999994371 0 0  3.324999999994224 0 0  3.39999999999408 0 0  3.474999999993937 0 0  3.549999999993792 0 0  3.624999999993648 0 0  3.699999999993503 0 0  3.774999999993359 0 0  3.849999999993216 0 0  3.924999999993071 0 0  3.999999999992927 0 0  4.074999999992784 0 0  4.149999999992639 0 0  4.224999999992495 0 0  4.29999999999235 0 0  4.374999999992207 0 0  4.449999999992063 0 0  4.524999999991918 0 0  4.599999999991773 0 0  4.674999999991629 0 0  4.749999999991484 0 0  4.82499999999134 0 0  4.899999999991195 0 0  4.974999999991052 0 0  5.049999999990908 0 0  5.124999999990763 0 0  5.199999999990617 0 0  5.274999999990472 0 0  5.349999999990329 0 0  5.424999999990185 0 0  5.49999999999004 0 0  5.574999999989895 0 0  5.649999999989751 0 0  5.724999999989608 0 0  5.799999999989463 0 0  5.874999999989317 0 0  5.949999999989172 0 0  6.024999999989028 0 0  6.099999999988885 0 0  6.17499999998874 0 0  6.249999999988596 0 0  6.324999999988451 0 0  6.399999999988305 0 0  6.474999999988162 0 0  6.549999999988019 0 0  6.624999999987873 0 0  6.699999999987728 0 0  6.774999999987587 0 0  6.849999999987441 0 0  6.924999999987296 0 0  6.999999999987153 0 0  7.074999999987007 0 0  7.149999999986864 0 0  7.224999999986718 0 0  7.299999999986575 0 0  7.374999999986429 0 0  7.449999999986284 0 0  7.524999999986141 0 0  7.599999999985997 0 0  7.674999999985852 0 0  7.749999999985706 0 0  7.824999999985563 0 0  7.89999999998542 0 0  7.974999999985274 0 0  8.049999999985129 0 0  8.124999999984986 0 0  8.19999999998484 0 0  8.274999999984697 0 0  8.349999999984554 0 0  8.424999999984408 0 0  8.499999999984261 0 0  8.574999999984119 0 0  8.649999999983976 0 0  8.724999999983829 0 0  8.799999999983685 0 0  8.874999999983542 0 0  8.949999999983397 0 0  9.024999999983253 0 0  9.099999999983106 0 0  9.174999999982964 0 0  9.249999999982817 0 0  9.324999999982674 0 0  9.399999999982532 0 0  9.474999999982385 0 0  9.549999999982241 0 0  9.624999999982094 0 0  9.699999999981955 0 0  9.774999999981809 0 0  9.849999999981662 0 0  9.924999999981519 0 0  9.999999999981375 0 0  10.07499999998123 0 0  10.14999999998109 0 0  10.22499999998094 0 0  10.2999999999808 0 0  10.37499999998065 0 0  10.44999999998051 0 0  10.52499999998036 0 0  10.59999999998022 0 0  10.67499999998007 0 0  10.74999999997993 0 0  10.82499999997979 0 0  10.89999999997964 0 0  10.9749999999795 0 0  11.04999999997935 0 0  11.12499999997921 0 0  11.19999999997906 0 0  11.27499999997892 0 0  11.34999999997877 0 0  11.42499999997863 0 0  11.49999999997848 0 0  11.57499999997834 0 0  11.6499999999782 0 0  11.72499999997805 0 0  11.79999999997791 0 0  11.87499999997776 0 0  11.94999999997762 0 0  12.02499999997748 0 0  12.09999999997733 0 0  12.17499999997719 0 0  12.24999999997704 0 0  12.3249999999769 0 0  12.39999999997675 0 0  12.47499999997661 0 0  12.54999999997646 0 0  12.62499999997632 0 0  12.69999999997617 0 0  12.77499999997603 0 0  12.84999999997589 0 0  12.92499999997574 0 0  12.9999999999756 0 0  13.07499999997545 0 0  13.14999999997531 0 0  13.22499999997516 0 0  13.29999999997502 0 0  13.37499999997488 0 0  13.44999999997473 0 0  13.52499999997459 0 0  13.59999999997444 0 0  13.6749999999743 0 0  13.74999999997415 0 0  13.82499999997401 0 0  13.89999999997386 0 0  13.97499999997372 0 0  14.04999999997358 0 0  14.12499999997343 0 0  14.19999999997329 0 0  14.27499999997314 0 0  14.349999999973 0 0  14.42499999997285 0 0  14.49999999997271 0 0  14.57499999997257 0 0  14.64999999997242 0 0  14.72499999997228 0 0  14.79999999997213 0 0  14.87499999997199 0 0  14.94999999997185 0 0  15.0249999999717 0 0  15.09999999997156 0 0  15.17499999997142 0 0  15.24999999997127 0 0  15.32499999997113 0 0  15.39999999997098 0 0  15.47499999997084 0 0  15.54999999997069 0 0  15.62499999997055 0 0  15.69999999997041 0 0  15.77499999997026 0 0  15.84999999997012 0 0  15.92499999996997 0 0  15.99999999996983 0 0  16.07499999996969 0 0  16.14999999996954 0 0  16.2249999999694 0 0  16.29999999996926 0 0  16.37499999996911 0 0  16.44999999996897 0 0  16.52499999996882 0 0  16.59999999996868 0 0  16.67499999996853 0 0  16.74999999996839 0 0  16.82499999996825 0 0  16.8999999999681 0 0  16.97499999996796 0 0  17.04999999996781 0 0  17.12499999996767 0 0  17.19999999996763 0 0  17.27499999996763 0 0  17.34999999996764 0 0  17.42499999996764 0 0  17.49999999996764 0 0  17.57499999996794 0 0  17.64999999996824 0 0  17.72499999996854 0 0  17.79999999996884 0 0  17.87499999996919 0 0  17.94999999996964 0 0  18.02499999997008 0 0  18.09999999997053 0 0  18.17499999997098 0 0  18.24999999997143 0 0  18.32499999997188 0 0  18.39999999997232 0 0  18.47499999997277 0 0  18.54999999997322 0 0  18.62499999997367 0 0  18.69999999997412 0 0  18.77499999997456 0 0  18.84999999997501 0 0  18.92499999997546 0 0  18.99999999997591 0 0  19.07499999997636 0 0  19.14999999997681 0 0  19.22499999997725 0 0  19.2999999999777 0 0  19.37499999997815 0 0  19.4499999999786 0 0  19.52499999997904 0 0  19.5999999999795 0 0  19.67499999997995 0 0  19.74999999998039 0 0  19.82499999998084 0 0  19.89999999998129 0 0  19.97499999998174 0 0  20.04999999998218 0 0  20.12499999998263 0 0  20.19999999998308 0 0  20.27499999998353 0 0  20.34999999998398 0 0  20.42499999998443 0 0  20.49999999998487 0 0  20.57499999998532 0 0  20.64999999998576 0 0  20.72499999998622 0 0  20.79999999998667 0 0  20.87499999998711 0 0  20.94999999998756 0 0  21.024999999988 0 0  21.09999999998846 0 0  21.17499999998891 0 0  21.24999999998935 0 0  21.3249999999898 0 0  21.39999999999025 0 0  21.4749999999907 0 0  21.54999999999115 0 0  21.62499999999159 0 0  21.69999999999204 0 0  21.77499999999249 0 0  21.84999999999294 0 0  21.92499999999339 0 0  21.99999999999383 0 0  22.07499999999428 0 0  22.14999999999473 0 0  22.22499999999518 0 0  22.29999999999563 0 0  22.37499999999607 0 0  22.44999999999652 0 0  22.52499999999697 0 0  22.59999999999742 0 0  22.67499999999787 0 0  22.74999999999831 0 0  22.82499999999876 0 0  22.89999999999922 0 0  22.97499999999966 0 0  23.05000000000011 0 0  23.12500000000055 0 0  23.200000000001 0 0  23.27500000000145 0 0  23.3500000000019 0 0  23.42500000000235 0 0  23.5000000000028 0 0  23.57500000000324 0 0  23.65000000000369 0 0  23.72500000000414 0 0  23.80000000000459 0 0  23.87500000000503 0 0  23.95000000000548 0 0  24.02500000000594 0 0  24.10000000000638 0 0  24.17500000000683 0 0  24.25000000000728 0 0  24.32500000000773 0 0  24.40000000000817 0 0  24.47500000000862 0 0  24.55000000000907 0 0  24.62500000000952 0 0  24.70000000000997 0 0  24.77500000001042 0 0  24.85000000001086 0 0  24.92500000001131 0 0  25.00000000001176 0 0  25.07500000001221 0 0  25.15000000001266 0 0  25.2250000000131 0 0  25.30000000001355 0 0  25.37500000001399 0 0  25.45000000001445 0 0  25.5250000000149 0 0  25.60000000001534 0 0  25.67500000001579 0 0  25.75000000001624 0 0  25.82500000001669 0 0  25.90000000001714 0 0  25.97500000001758 0 0  26.05000000001803 0 0  26.12500000001848 0 0  26.2000000000189
[...]
<PointData  Vectors="f_6-0"> 
<DataArray  type="Float64"  Name="f_6-0"  NumberOfComponents="3" format="ascii">9.9990920426259511e-01 0.0000000000000000e+00 0.0000000000000000e+00  9.6076357663579148e-01 0.0000000000000000e+00 0.0000000000000000e+00  8.7583533224224863e-04 -9.4894283849469819e-04 -3.6039381645397046e-05  1.0000000000001811e-48 0.0000000000000000e+00 0.0000000000000000e+00  1.0000000000001033e-48 0.0000000000000000e+00 0.0000000000000000e+00  1.0000000000001811e-48 0.0000000000000000e+00 0.0000000000000000e+00  8.4828363995751288e-01 0.0000000000000000e+00 2.1207090998927220e-02  7.1940080195800082e-01 2.8919910181884893e-03 1.4623927150742143e-02  1.0371464223791793e-01 -3.8670121971886044e-03 2.2854836641584778e-03  1.0000000000000255e-48 0.0000000000000000e+00 0.0000000000000000e+00  1.0000000000000255e-48 0.0000000000000000e+00 0.0000000000000000e+00  9.5241828824297603e-02 -7.2550920312747348e-03 2.2115880965044251e-03  3.3484539412577757e-01 2.0078390048525381e-03 6.6283543300957332e-03  3.0054367890683048e-01 -4.3639520394034677e-04 5.6670751703598449e-03  1.0000000000000255e-48 0.0000000000000000e+00 0.0000000000000000e+00  1.0000000000000255e-48 0.0000000000000000e+00 0.0000000000000000e+00  2.1194650460191664e-01 -1.3841575821007176e-04 3.5286031459356858e-03  1.0000200131525354e+00 0.0000000000000000e+00 0.0000000000000000e+00  1.0000670053641076e+00 0.0000000000000000e+00 0.0000000000000000e+00  1.0007054055281752e+00 0.0000000000000000e+00 0.0000000000000000e+00  1.0014123255620011e+00 0.0000000000000000e+00 0.0000000000000000e+00  1.0022569376234998e+00 0.0000000000000000e+00 0.0000000000000000e+00  1.0033546081493665e+00 0.0000000000000000e+00 0.0000000000000000e+00  1.0045791122979040e+00 0.0000000000000000e+00 0.0000000000000000e+00  1.0059883859556602e+00 0.0000000000000000e+00 0.0000000000000000e+00  1.0073784436529960e+00 0.0000000000000000e+00 0.0000000000000000e+00  1.0090606960328643e+00 0.0000000000000000e+00 0.0000000000000000e+00  1.0105859939243838e+00 0.0000000000000000e+00 0.0000000000000000e+00  1.0124174500843095e+00 0.0000000000000000e+00 0.0000000000000000e+00  1.0140867769197917e+00 0.0000000000000000e+00 0.0000000000000000e+00  1.0159790748573121e+00 0.0000000000000000e+00 0.0000000000000000e+00  1.0177108094058445e+00 0.0000000000000000e+00 0.0000000000000000e+00  1.0196265192153837e+00 0.0000000000000000e+00 0.0000000000000000e+00  1.0214252655348344e+00 0.0000000000000000e+00 0.0000000000000000e+00  1.0233046531803940e+00 0.0000000000000000e+00 0.0000000000000000e+00  1.0251350417913143e+00 0.0000000000000000e+00 0.0000000000000000e+00  1.0270331107165700e+00 0.0000000000000000e+00 0.0000000000000000e+00  1.0288626256276865e+00 0.0000000000000000e+00 0.0000000000000000e+00  1.0306879622483684e+00 0.0000000000000000e+00 0.0000000000000000e+00  1.0325620532665105e+00 0.0000000000000000e+00 0.0000000000000000e+00  1.0343605794495299e+00 0.0000000000000000e+00 0.0000000000000000e+00  1.0361921623191632e+00 0.0000000000000000e+00 0.0000000000000000e+00  1.0379637768847012e+00 0.0000000000000000e+00 0.0000000000000000e+00  1.0397700399022647e+00 0.0000000000000000e+00 0.0000000000000000e+00  1.0415517558236502e+00 0.0000000000000000e+00 0.0000000000000000e+00  1.0433022705517985e+00 0.0000000000000000e+00 0.0000000000000000e+00  1.0450638082839261e+00 0.0000000000000000e+00 0.0000000000000000e+00  1.0467872612992259e+00 0.0000000000000000e+00 0.0000000000000000e+00  1.0485185127493777e+00 0.0000000000000000e+00 0.0000000000000000e+00  1.0502191851427847e+00 0.0000000000000000e+00 0.0000000000000000e+00  1.0519315956544388e+00 0.0000000000000000e+00 0.0000000000000000e+00  1.0536108593972453e+00 0.0000000000000000e+00 0.0000000000000000e+00  1.0552758085561542e+00 0.0000000000000000e+00 0.0000000000000000e+00  1.0569617108332867e+00 0.0000000000000000e+00 0.0000000000000000e+00  1.0585960617069416e+00 0.0000000000000000e+00 0.0000000000000000e+00  1.0602429615385425e+00 0.0000000000000000e+00 0.0000000000000000e+00  1.0618461161029167e+00 0.0000000000000000e+00 0.0000000000000000e+00  1.0634811472129255e+00 0.0000000000000000e+00 0.0000000000000000e+00  1.0650860939435112e+00 0.0000000000000000e+00 0.0000000000000000e+00  1.0666723901659036e+00 0.0000000000000000e+00 0.0000000000000000e+00  1.0682556928563516e+00 0.0000000000000000e+00 0.0000000000000000e+00  1.0698176370278789e+00 0.0000000000000000e+00 0.0000000000000000e+00  1.0713791699460451e+00 0.0000000000000000e+00 0.0000000000000000e+00  1.0729144116293199e+00 0.0000000000000000e+00 0.0000000000000000e+00  1.0744487649623953e+00 0.0000000000000000e+00 0.0000000000000000e+00  1.0759625297649476e+00 0.0000000000000000e+00 0.0000000000000000e+00  1.0774644878399604e+00 0.0000000000000000e+00 0.0000000000000000e+00  1.0789635376278699e+00 0.0000000000000000e+00 0.0000000000000000e+00  1.0804137439703057e+00 0.0000000000000000e+00 0.0000000000000000e+00  1.0818716412111695e+00 0.0000000000000000e+00 0.0000000000000000e+00  1.0832654289796677e+00 0.0000000000000000e+00 0.0000000000000000e+00  1.0846795640892166e+00 0.0000000000000000e+00 0.0000000000000000e+00  1.0860373396131682e+00 0.0000000000000000e+00 0.0000000000000000e+00  1.0873498534731962e+00 0.0000000000000000e+00 0.0000000000000000e+00  1.0886282708921344e+00 0.0000000000000000e+00 0.0000000000000000e+00  1.0898295741477446e+00 0.0000000000000000e+00 0.0000000000000000e+00  1.0909809261799659e+00 0.0000000000000000e+00 0.0000000000000000e+00  1.0920540161828609e+00 0.0000000000000000e+00 0.0000000000000000e+00  1.0930264584045626e+00 0.0000000000000000e+00 0.0000000000000000e+00  1.0939078629211021e+00 0.0000000000000000e+00 0.0000000000000000e+00  1.0946993904688183e+00 0.0000000000000000e+00 0.0000000000000000e+00  1.0953695743981240e+00 0.0000000000000000e+00 0.0000000000000000e+00  1.0959086865128727e+00 0.0000000000000000e+00 0.0000000000000000e+00  1.0963676931590849e+00 0.0000000000000000e+00 0.0000000000000000e+00  1.0966981069565060e+00 0.0000000000000000e+00 0.0000000000000000e+00  1.0969647821902737e+00 0.0000000000000000e+00 0.0000000000000000e+00  1.0971591922024302e+00 0.0000000000000000e+00 0.0000000000000000e+00  1.0972641329179404e+00 0.0000000000000000e+00 0.0000000000000000e+00  1.0973439017762916e+00 0.0000000000000000e+00 0.0000000000000000e+00  1.0973649577032942e+00 0.0000000000000000e+00 0.0000000000000000e+00  1.0973799095697763e+00 0.0000000000000000e+00 0.0000000000000000e+00  1.0973729271861981e+00 0.0000000000000000e+00 0.0000000000000000e+00  1.0973414322795330e+00 0.0000000000000000e+00 0.0000000000000000e+00  1.0973214700094964e+00 0.0000000000000000e+00 0.0000000000000000e+00  1.0973015687174550e+00 0.0000000000000000e+00 0.0000000000000000e+00  1.0972862752014991e+00 0.0000000000000000e+00 0.0000000000000000e+00  1.0972446058995686e+00 0.0000000000000000e+00 0.0000000000000000e+00  1.0972187244673273e+00 0.0000000000000000e+00 0.0000000000000000e+00  1.0971729818461797e+00 0.0000000000000000e+00 0.0000000000000000e+00  1.0971730478396040e+00 0.0000000000000000e+00 0.0000000000000000e+00  1.0971437365638737e+00 0.0000000000000000e+00 0.0000000000000000e+00  1.0971232770627362e+00 0.0000000000000000e+00 0.0000000000000000e+00  1.0970901663131636e+00 0.0000000000000000e+00 0.0000000000000000e+00  1.0970655000126648e+00 0.0000000000000000e+00 0.0000000000000000e+00  1.0970467608875918e+00 0.0000000000000000e+00 0.0000000000000000e+00  1.0970207593227936e+00 0.0000000000000000e+00 0.0000000000000000e+00  1.0969878843685454e+00 0.0000000000000000e+00 0.0000000000000000e+00  1.0969607745097925e+00 0.0000000000000000e+00 0.0000000000000000e+00  1.0969552647769072e+00 0.0000000000000000e+00 0.0000000000000000e+00  1.0969398334409950e+00 0.0000000000000000e+00 0.0000000000000000e+00  1.0969039479499336e+00 0.0000000000000000e+00 0.0000000000000000e+00  1.0968823515149264e+00 0.0000000000000000e+00 0.0000000000000000e+00  1.0968332068068365e+00 0.0000000000000000e+00 0.0000000000000000e+00  1.0968425618231592e+00 0.0000000000000000e+00 0.0000000000000000e+00  1.0968112040085534e+00 0.0000000000000000e+00 0.0000000000000000e+00  1.0967929494766213e+00 0.0000000000000000e+00 0.0000000000000000e+00  1.0967573021689108e+00 0.0000000000000000e+00 0.0000000000000000e+00  1.0967299672198845e+00 0.0000000000000000e+00 0.0000000000000000e+00  1.0967053762175332e+00 0.0000000000000000e+00 0.0000000000000000e+00  1.0966786392841956e+00 0.0000000000000000e+00 0.0000000000000000e+00  1.0966349290044251e+00 0.0000000000000000e+00 0.0000000000000000e+00  1.0966043119372666e+00 0.0000000000000000e+00 0.0000000000000000e+00  1.0965956496700868e+00 0.0000000000000000e+00 0.0000000000000000e+00  1.0965734839133727e+00 0.0000000000000000e+00 0.0000000000000000e+00  1.0965307855613435e+00 0.0000000000000000e+00 0.0000000000000000e+00  1.0965002274473237e+00 0.0000000000000000e+00 0.0000000000000000e+00  1.0964435246652511e+00 0.0000000000000000e+00 0.0000000000000000e+00  1.0964479523882593e+00 0.0000000000000000e+00 0.0000000000000000e+00  1.0964095747921752e+00 0.0000000000000000e+00 0.0000000000000000e+00  1.0963839983285459e+00 0.0000000000000000e+00 0.0000000000000000e+00  1.0963394921641316e+00 0.0000000000000000e+00 0.0000000000000000e+00  1.0963033900389914e+00 0.0000000000000000e+00 0.0000000000000000e+00  1.0962711984599660e+00 0.0000000000000000e+00 0.0000000000000000e+00  1.0962376168415540e+00 0.0000000000000000e+00 0.0000000000000000e+00  1.0961848994387118e+00 0.0000000000000000e+00 0.0000000000000000e+00  1.0961466975607508e+00 0.0000000000000000e+00 0.0000000000000000e+00  1.0961294436799014e+00 0.0000000000000000e+00 0.0000000000000000e+00  1.0960969319898055e+00 0.0000000000000000e+00 0.0000000000000000e+00  1.0960456294122729e+00 0.0000000000000000e+00 0.0000000000000000e+00  1.0960027991419690e+00 0.0000000000000000e+00 0.0000000000000000e+00  1.0959398405059366e+00 0.0000000000000000e+00 0.0000000000000000e+00  1.0959309773103332e+00 0.0000000000000000e+00 0.0000000000000000e+00  1.0958861002111513e+00 0.0000000000000000e+00 0.0000000000000000e+00  1.0958499873897491e+00 0.0000000000000000e+00 0.0000000000000000e+00  1.0957919742735809e+00 0.0000000000000000e+00 0.0000000000000000e+00  1.0957402619933534e+00 0.0000000000000000e+00 0.0000000000000000e+00  1.0956942229945195e+00 0.0000000000000000e+00 0.0000000000000000e+00  1.0956290236735631e+00 0.0000000000000000e+00 0.0000000000000000e+00  1.0956032768833046e+00 0.0000000000000000e+00 0.0000000000000000e+00  1.0955542173913617e+00 0.0000000000000000e+00 0.0000000000000000e+00  1.0955070556269852e+00 0.0000000000000000e+00 0.0000000000000000e+00  1.0954744877732341e+00 0.0000000000000000e+00 0.0000000000000000e+00  1.0954014439752158e+00 0.0000000000000000e+00 0.0000000000000000e+00  1.0953627138770570e+00 0.0000000000000000e+00 0.0000000000000000e+00  1.0953097693111669e+00 0.0000000000000000e+00 0.0000000000000000e+00  1.0952658581877392e+00 0.0000000000000000e+00 0.0000000000000000e+00  1.0952161097900757e+00 0.0000000000000000e+00 0.0000000000000000e+00  1.0951502956226118e+00 0.0000000000000000e+00 0.0000000000000000e+00  1.0950689350474161e+00 0.0000000000000000e+00 0.0000000000000000e+00  1.0950373140185690e+00 0.0000000000000000e+00 0.0000000000000000e+00  1.0949820428370018e+00 0.0000000000000000e+00 0.0000000000000000e+00  1.0949356967399737e+00 0.0000000000000000e+00 0.0000000000000000e+00  1.0948575452412161e+00 0.0000000000000000e+00 0.0000000000000000e+00  1.0947478231284766e+00 0.0000000000000000e+00 0.0000000000000000e+00  1.0947214409754729e+00 0.0000000000000000e+00 0.0000000000000000e+00  1.0946371464612616e+00 0.0000000000000000e+00 0.0000000000000000e+00  1.0945939797515254e+00 0.0000000000000000e+00 0.0000000000000000e+00  1.0945366071933422e+00 0.0000000000000000e+00 0.0000000000000000e+00  1.0944877002510118e+00 0.0000000000000000e+00 0.0000000000000000e+00  1.0944143145603902e+00 0.0000000000000000e+00 0.0000000000000000e+00  1.0943283950524569e+00 0.0000000000000000e+00 0.0000000000000000e+00  1.0942997643631278e+00 0.0000000000000000e+00 0.0000000000000000e+00  1.0942469118643734e+00 0.0000000000000000e+00 0.0000000000000000e+00  1.0941591276593836e+00 0.0000000000000000e+00 0.0000000000000000e+00  1.0941015859420409e+00 0.0000000000000000e+00 0.0000000000000000e+00  1.0940177530542763e+00 0.0000000000000000e+00 0.0000000000000000e+00  1.0939540996577395e+00 0.0000000000000000e+00 0.0000000000000000e+00  1.0938814837892608e+00 0.0000000000000000e+00 0.0000000000000000e+00  1.0938067870889494e+00 0.0000000000000000e+00 0.0000000000000000e+00  1.0937186287713849e+00 0.0000000000000000e+00 0.0000000000000000e+00  1.0936321618632083e+00 0.0000000000000000e+00 0.0000000000000000e+00  1.0935543297342276e+00 0.0000000000000000e+00 0.0000000000000000e+00  1.0934777084108587e+00 0.0000000000000000e+00 0.0000000000000000e+00  1.0933960558797740e+00 0.0000000000000000e+00 0.0000000000000000e+00  1.0932928543560592e+00 0.0000000000000000e+00 0.0000000000000000e+00  1.0932296008679458e+00 0.0000000000000000e+00 0.0000000000000000e+00  1.0931767749896442e+00 0.0000000000000000e+00 0.0000000000000000e+00  1.0930828351738584e+00 0.0000000000000000e+00 0.0000000000000000e+00  1.0929996200316672e+00 0.0000000000000000e+00 0.0000000000000000e+00  1.0929119000027814e+00 0.0000000000000000e+00 0.0000000000000000e+00  1.0928310914630137e+00 0.0000000000000000e+00 0.0000000000000000e+00  1.0927359178782066e+00 0.0000000000000000e+00 0.0000000000000000e+00  1.0926483982637152e+00 0.0000000000000000e+00 0.0000000000000000e+00  1.0925428915556159e+00 0.0000000000000000e+00 0.0000000000000000e+00  1.0924698094778393e+00 0.0000000000000000e+00 0.0000000000000000e+00  1.0923651959113878e+00 0.0000000000000000e+00 0.0000000000000000e+00  1.0922516286530459e+00 0.0000000000000000e+00 0.0000000000000000e+00  1.0921849571095539e+00 0.0000000000000000e+00 0.0000000000000000e+00  1.0921039539019679e+00 0.0000000000000000e+00 0.0000000000000000e+00  1.0919763620595753e+00 0.0000000000000000e+00 0.0000000000000000e+00  1.0918934094278450e+00 0.0000000000000000e+00 0.0000000000000000e+00  1.0917903798948596e+00 0.0000000000000000e+00 0.0000000000000000e+00  1.0916793639355469e+00 0.0000000000000000e+00 0.0000000000000000e+00  1.0915873166827110e+00 0.0000000000000000e+00 0.0000000000000000e+00  1.0914738445492378e+00 0.0000000000000000e+00 0.0000000000000000e+00  1.0913816888347205e+00 0.0000000000000000e+00 0.0000000000000000e+00  1.0912621563791161e+00 0.0000000000000000e+00 0.0000000000000000e+00  1.0911383649759305e+00 0.0000000000000000e+00 0.0000000000000000e+00  1.0910358872606760e+00 0.0000000000000000e+00 0.0000000000000000e+00  1.0909097827625960e+00 0.0000000000000000e+00 0.0000000000000000e+00  1.0908126634738951e+00 0.0000000000000000e+00 0.0000000000000000e+00  1.0907053446066308e+00 0.0000000000000000e+00 0.0000000000000000e+00  1.0906073225916626e+00 0.0000000000000000e+00 0.0000000000000000e+00  1.0904795537546035e+00 0.0000000000000000e+00 0.0000000000000000e+00  1.0903802045158231e+00 0.0000000000000000e+00 0.0000000000000000e+00  1.0902400604207301e+00 0.0000000000000000e+00 0.0000000000000000e+00  1.0900798375291982e+00 0.0000000000000000e+00 0.0000000000000000e+00  1.0899707102742953e+00 0.0000000000000000e+00 0.0000000000000000e+00  1.0898759709029968e+00 0.0000000000000000e+00 0.0000000000000000e+00  1.0897597290335073e+00 0.0000000000000000e+00 0.0000000000000000e+00  1.0896459858793048e+00 0.0000000000000000e+00 0.0000000000000000e+00  1.0895099639583679e+00 0.0000000000000000e+00 0.0000000000000000e+00  1.0894047090325198e+00 0.0000000000000000e+00 0.0000000000000000e+00  1.0892462984114339e+00 0.0000000000000000e+00 0.0000000000000000e+00  1.0891344762702115e+00 0.0000000000000000e+00 0.0000000000000000e+00  1.0890024598853119e+00 0.0000000000000000e+00 0.0000000000000000e+00  1.0888768973578102e+00 0.0000000000000000e+00 0.0000000000000000e+00  1.0887329867816811e+00 0.0000000000000000e+00 0.0000000000000000e+00  1.0886021091003946e+00 0.0000000000000000e+00 0.0000000000000000e+00  1.0884563430653238e+00 0.0000000000000000e+00 0.0000000000000000e+00  1.0883105686860481e+00 0.0000000000000000e+00 0.0000000000000000e+00  1.0881871344945324e+00 0.0000000000000000e+00 0.0000000000000000e+00  1.0880427261942032e+00 0.0000000000000000e+00 0.0000000000000000e+00  1.0878982665598738e+00 0.0000000000000000e+00 0.0000000000000000e+00  1.0877673097631948e+00 0.0000000000000000e+00 0.0000000000000000e+00  1.0876249739486867e+00 0.0000000000000000e+00 0.0000000000000000e+00  1.0874607941563139e+00 0.0000000000000000e+00 0.0000000000000000e+00  1.0873219183010820e+00 0.0000000000000000e+00 0.0000000000000000e+00  1.0871737708737652e+00 0.0000000000000000e+00 0.0000000000000000e+00  1.0870296027438391e+00 0.0000000000000000e+00 0.0000000000000000e+00  1.0868661949552421e+00 0.0000000000000000e+00 0.0000000000000000e+00  1.0867071796965289e+00 0.0000000000000000e+00 0.0000000000000000e+00  1.0865662347384111e+00 0.0000000000000000e+00 0.0000000000000000e+00  1.0864078006524351e+00 0.0000000000000000e+00 0.0000000000000000e+00  1.0862481895317755e+00 0.0000000000000000e+00 0.0000000000000000e+00  1.0861009778793873e+00 0.0000000000000000e+00 0.0000000000000000e+00  1.0859432276102321e+00 0.0000000000000000e+00 0.0000000000000000e+00  1.0857645634395385e+00 0.0000000000000000e+00 0.0000000000000000e+00  1.0856099443948015e+00 0.0000000000000000e+00 0.0000000000000000e+00  1.0854469968796463e+00 0.0000000000000000e+00 0.0000000000000000e+00  1.0852877531862619e+00 0.0000000000000000e+00 0.0000000000000000e+00  1.0851093578909636e+00 0.0000000000000000e+00 0.0000000000000000e+00  1.0849347578257560e+00 0.0000000000000000e+00 0.0000000000000000e+00  1.0847784148779760e+00 0.0000000000000000e+00 0.0000000000000000e+00  1.0846053276576428e+00 0.0000000000000000e+00 0.0000000000000000e+00  1.0844308016932602e+00 0.0000000000000000e+00 0.0000000000000000e+00  1.0842672028290836e+00 0.0000000000000000e+00 0.0000000000000000e+00  1.0840939663332778e+00 0.0000000000000000e+00 0.0000000000000000e+00  1.0839002705946410e+00 0.0000000000000000e+00 0.0000000000000000e+00  1.0837303975080119e+00 0.0000000000000000e+00 0.0000000000000000e+00  1.0835521083178039e+00 0.0000000000000000e+00 0.0000000000000000e+00  1.0833772965727830e+00 0.0000000000000000e+00 0.0000000000000000e+00  1.0831840942885864e+00 0.0000000000000000e+00 0.0000000000000000e+00  1.0829940286084481e+00 0.0000000000000000e+00 0.0000000000000000e+00  1.0828221238737739e+00 0.0000000000000000e+00 0.0000000000000000e+00  1.0826341823125374e+00 0.0000000000000000e+00 0.0000000000000000e+00  1.0824446765185296e+00 0.0000000000000000e+00 0.0000000000000000e+00  1.0822647205448321e+00 0.0000000000000000e+00 0.0000000000000000e+00  1.0820759068198533e+00 0.0000000000000000e+00 0.0000000000000000e+00  1.0818663158086705e+00 0.0000000000000000e+00 0.0000000000000000e+00  1.0816824904262770e+00 0.0000000000000000e+00 0.0000000000000000e+00  1.0814919739800624e+00 0.0000000000000000e+00 0.0000000000000000e+00  1.0812969305029752e+00 0.0000000000000000e+00 0.0000000000000000e+00  1.0810811643709142e+00 0.0000000000000000e+00 0.0000000000000000e+00  1.0808794027704320e+00 0.0000000000000000e+00 0.0000000000000000e+00  1.0806986282202151e+00 0.0000000000000000e+00 0.0000000000000000e+00  1.0804932038315938e+00 0.0000000000000000e+00 0.0000000000000000e+00  1.0802914299208140e+00 0.0000000000000000e+00 0.0000000000000000e+00  1.0800938213981011e+00 0.0000000000000000e+00 0.0000000000000000e+00  1.0798908118494381e+00 0.0000000000000000e+00 0.0000000000000000e+00  1.0796658255151277e+00 0.0000000000000000e+00 0.0000000000000000e+00  1.0794670051991693e+00 0.0000000000000000e+00 0.0000000000000000e+00  1.0792603705746575e+00 0.0000000000000000e+00 0.0000000000000000e+00  1.0790510846113937e+00 0.0000000000000000e+00 0.0000000000000000e+00  1.07