<?xml version="1.0"?>
<VTKFile type="UnstructuredGrid"  version="0.1"  >
<UnstructuredGrid>
<Piece  NumberOfPoints="25032" NumberOfCells="49121">
<Points>
<DataArray  type="Float64"  NumberOfComponents="3"  format="ascii">-5 0 0  40 0 0  40 10 0  0 10 0  0 1 0  -5 1 0  -5 0.75 0  5 0.75 0  5 1.25 0  0 1.25 0  0 1.075 0  1 1.075 0  1 0.925 0  -2 0.925 0  -2 1 0  0 1.5 0  40 1.5 0  -4.924999999999996 0 0  -4.849999999999993 0 0  -4.774999999999989 0 0  -4.699999999999985 0 0  -4.624999999999981 0 0  -4.549999999999978 0 0  -4.474999999999974 0 0  -4.39999999999997 0 0  -4.324999999999966 0 0  -4.249999999999963 0 0  -4.174999999999959 0 0  -4.099999999999955 0 0  -4.024999999999951 0 0  -3.949999999999947 0 0  -3.874999999999943 0 0  -3.79999999999994 0 0  -3.724999999999936 0 0  -3.649999999999932 0 0  -3.574999999999929 0 0  -3.499999999999925 0 0  -3.424999999999921 0 0  -3.349999999999917 0 0  -3.274999999999913 0 0  -3.19999999999993 0 0  -3.124999999999964 0 0  -3.049999999999997 0 0  -2.97500000000003 0 0  -2.900000000000063 0 0  -2.825000000000129 0 0  -2.750000000000199 0 0  -2.675000000000269 0 0  -2.600000000000339 0 0  -2.525000000000407 0 0  -2.450000000000458 0 0  -2.37500000000051 0 0  -2.300000000000562 0 0  -2.225000000000613 0 0  -2.150000000000647 0 0  -2.075000000000662 0 0  -2.000000000000676 0 0  -1.925000000000691 0 0  -1.850000000000705 0 0  -1.775000000000705 0 0  -1.700000000000702 0 0  -1.625000000000698 0 0  -1.550000000000694 0 0  -1.47500000000069 0 0  -1.400000000000686 0 0  -1.325000000000682 0 0  -1.250000000000679 0 0  -1.175000000000675 0 0  -1.100000000000671 0 0  -1.025000000000667 0 0  -0.9500000000006636 0 0  -0.875000000000659 0 0  -0.8000000000006553 0 0  -0.7250000000006516 0 0  -0.6500000000006478 0 0  -0.5750000000006441 0 0  -0.5000000000006395 0 0  -0.4250000000006366 0 0  -0.3500000000006329 0 0  -0.2750000000006292 0 0  -0.2000000000006246 0 0  -0.1250000000006208 0 0  -0.05000000000061799 0 0  0.02499999999938662 0 0  0.09999999999939035 0 0  0.1749999999993941 0 0  0.2499999999993978 0 0  0.3249999999993758 0 0  0.3999999999993431 0 0  0.4749999999993095 0 0  0.5499999999992768 0 0  0.6249999999992433 0 0  0.6999999999991351 0 0  0.7749999999990296 0 0  0.8499999999989214 0 0  0.9249999999988141 0 0  0.9999999999986944 0 0  1.074999999998552 0 0  1.149999999998407 0 0  1.224999999998261 0 0  1.299999999998119 0 0  1.374999999997974 0 0  1.44999999999783 0 0  1.524999999997685 0 0  1.599999999997541 0 0  1.674999999997397 0 0  1.749999999997253 0 0  1.824999999997109 0 0  1.899999999996965 0 0  1.974999999996821 0 0  2.049999999996677 0 0  2.124999999996531 0 0  2.199999999996388 0 0  2.274999999996243 0 0  2.349999999996101 0 0  2.424999999995955 0 0  2.49999999999581 0 0  2.574999999995668 0 0  2.649999999995523 0 0  2.724999999995378 0 0  2.799999999995234 0 0  2.874999999995089 0 0  2.949999999994946 0 0  3.024999999994801 0 0  3.099999999994658 0 0  3.174999999994514 0 0  3.249999999994371 0 0  3.324999999994224 0 0  3.39999999999408 0 0  3.474999999993937 0 0  3.549999999993792 0 0  3.624999999993648 0 0  3.699999999993503 0 0  3.774999999993359 0 0  3.849999999993216 0 0  3.924999999993071 0 0  3.999999999992927 0 0  4.074999999992784 0 0  4.149999999992639 0 0  4.224999999992495 0 0  4.29999999999235 0 0  4.374999999992207 0 0  4.449999999992063 0 0  4.524999999991918 0 0  4.599999999991773 0 0  4.674999999991629 0 0  4.749999999991484 0 0  4.82499999999134 0 0  4.899999999991195 0 0  4.974999999991052 0 0  5.049999999990908 0 0  5.124999999990763 0 0  5.199999999990617 0 0  5.274999999990472 0 0  5.349999999990329 0 0  5.424999999990185 0 0  5.49999999999004 0 0  5.574999999989895 0 0  5.649999999989751 0 0  5.724999999989608 0 0  5.799999999989463 0 0  5.874999999989317 0 0  5.949999999989172 0 0  6.024999999989028 0 0  6.099999999988885 0 0  6.17499999998874 0 0  6.249999999988596 0 0  6.324999999988451 0 0  6.399999999988305 0 0  6.474999999988162 0 0  6.549999999988019 0 0  6.624999999987873 0 0  6.699999999987728 0 0  6.774999999987587 0 0  6.849999999987441 0 0  6.924999999987296 0 0  6.999999999987153 0 0  7.074999999987007 0 0  7.149999999986864 0 0  7.224999999986718 0 0  7.299999999986575 0 0  7.374999999986429 0 0  7.449999999986284 0 0  7.524999999986141 0 0  7.599999999985997 0 0  7.674999999985852 0 0  7.749999999985706 0 0  7.824999999985563 0 0  7.89999999998542 0 0  7.974999999985274 0 0  8.049999999985129 0 0  8.124999999984986 0 0  8.19999999998484 0 0  8.274999999984697 0 0  8.349999999984554 0 0  8.424999999984408 0 0  8.499999999984261 0 0  8.574999999984119 0 0  8.649999999983976 0 0  8.724999999983829 0 0  8.799999999983685 0 0  8.874999999983542 0 0  8.949999999983397 0 0  9.024999999983253 0 0  9.099999999983106 0 0  9.174999999982964 0 0  9.249999999982817 0 0  9.324999999982674 0 0  9.399999999982532 0 0  9.474999999982385 0 0  9.549999999982241 0 0  9.624999999982094 0 0  9.699999999981955 0 0  9.774999999981809 0 0  9.849999999981662 0 0  9.924999999981519 0 0  9.999999999981375 0 0  10.07499999998123 0 0  10.14999999998109 0 0  10.22499999998094 0 0  10.2999999999808 0 0  10.37499999998065 0 0  10.44999999998051 0 0  10.52499999998036 0 0  10.59999999998022 0 0  10.67499999998007 0 0  10.74999999997993 0 0  10.82499999997979 0 0  10.89999999997964 0 0  10.9749999999795 0 0  11.04999999997935 0 0  11.12499999997921 0 0  11.19999999997906 0 0  11.27499999997892 0 0  11.34999999997877 0 0  11.42499999997863 0 0  11.49999999997848 0 0  11.57499999997834 0 0  11.6499999999782 0 0  11.72499999997805 0 0  11.79999999997791 0 0  11.87499999997776 0 0  11.94999999997762 0 0  12.02499999997748 0 0  12.09999999997733 0 0  12.17499999997719 0 0  12.24999999997704 0 0  12.3249999999769 0 0  12.39999999997675 0 0  12.47499999997661 0 0  12.54999999997646 0 0  12.62499999997632 0 0  12.69999999997617 0 0  12.77499999997603 0 0  12.84999999997589 0 0  12.92499999997574 0 0  12.9999999999756 0 0  13.07499999997545 0 0  13.14999999997531 0 0  13.22499999997516 0 0  13.29999999997502 0 0  13.37499999997488 0 0  13.44999999997473 0 0  13.52499999997459 0 0  13.59999999997444 0 0  13.6749999999743 0 0  13.74999999997415 0 0  13.82499999997401 0 0  13.89999999997386 0 0  13.97499999997372 0 0  14.04999999997358 0 0  14.12499999997343 0 0  14.19999999997329 0 0  14.27499999997314 0 0  14.349999999973 0 0  14.42499999997285 0 0  14.49999999997271 0 0  14.57499999997257 0 0  14.64999999997242 0 0  14.72499999997228 0 0  14.79999999997213 0 0  14.87499999997199 0 0  14.94999999997185 0 0  15.0249999999717 0 0  15.09999999997156 0 0  15.17499999997142 0 0  15.24999999997127 0 0  15.32499999997113 0 0  15.39999999997098 0 0  15.47499999997084 0 0  15.54999999997069 0 0  15.62499999997055 0 0  15.69999999997041 0 0  15.77499999997026 0 0  15.84999999997012 0 0  15.92499999996997 0 0  15.99999999996983 0 0  16.07499999996969 0 0  16.14999999996954 0 0  16.2249999999694 0 0  16.29999999996926 0 0  16.37499999996911 0 0  16.44999999996897 0 0  16.52499999996882 0 0  16.59999999996868 0 0  16.67499999996853 0 0  16.74999999996839 0 0  16.82499999996825 0 0  16.8999999999681 0 0  16.97499999996796 0 0  17.04999999996781 0 0  17.12499999996767 0 0  17.19999999996763 0 0  17.27499999996763 0 0  17.34999999996764 0 0  17.42499999996764 0 0  17.49999999996764 0 0  17.57499999996794 0 0  17.64999999996824 0 0  17.72499999996854 0 0  17.79999999996884 0 0  17.87499999996919 0 0  17.94999999996964 0 0  18.02499999997008 0 0  18.09999999997053 0 0  18.17499999997098 0 0  18.24999999997143 0 0  18.32499999997188 0 0  18.39999999997232 0 0  18.47499999997277 0 0  18.54999999997322 0 0  18.62499999997367 0 0  18.69999999997412 0 0  18.77499999997456 0 0  18.84999999997501 0 0  18.92499999997546 0 0  18.99999999997591 0 0  19.07499999997636 0 0  19.14999999997681 0 0  19.22499999997725 0 0  19.2999999999777 0 0  19.37499999997815 0 0  19.4499999999786 0 0  19.52499999997904 0 0  19.5999999999795 0 0  19.67499999997995 0 0  19.74999999998039 0 0  19.82499999998084 0 0  19.89999999998129 0 0  19.97499999998174 0 0  20.04999999998218 0 0  20.12499999998263 0 0  20.19999999998308 0 0  20.27499999998353 0 0  20.34999999998398 0 0  20.42499999998443 0 0  20.49999999998487 0 0  20.57499999998532 0 0  20.64999999998576 0 0  20.72499999998622 0 0  20.79999999998667 0 0  20.87499999998711 0 0  20.94999999998756 0 0  21.024999999988 0 0  21.09999999998846 0 0  21.17499999998891 0 0  21.24999999998935 0 0  21.3249999999898 0 0  21.39999999999025 0 0  21.4749999999907 0 0  21.54999999999115 0 0  21.62499999999159 0 0  21.69999999999204 0 0  21.77499999999249 0 0  21.84999999999294 0 0  21.92499999999339 0 0  21.99999999999383 0 0  22.07499999999428 0 0  22.14999999999473 0 0  22.22499999999518 0 0  22.29999999999563 0 0  22.37499999999607 0 0  22.44999999999652 0 0  22.52499999999697 0 0  22.59999999999742 0 0  22.67499999999787 0 0  22.74999999999831 0 0  22.82499999999876 0 0  22.89999999999922 0 0  22.97499999999966 0 0  23.05000000000011 0 0  23.12500000000055 0 0  23.200000000001 0 0  23.27500000000145 0 0  23.3500000000019 0 0  23.42500000000235 0 0  23.5000000000028 0 0  23.57500000000324 0 0  23.65000000000369 0 0  23.72500000000414 0 0  23.80000000000459 0 0  23.87500000000503 0 0  23.95000000000548 0 0  24.02500000000594 0 0  24.10000000000638 0 0  24.17500000000683 0 0  24.25000000000728 0 0  24.32500000000773 0 0  24.40000000000817 0 0  24.47500000000862 0 0  24.55000000000907 0 0  24.62500000000952 0 0  24.70000000000997 0 0  24.77500000001042 0 0  24.85000000001086 0 0  24.92500000001131 0 0  25.00000000001176 0 0  25.07500000001221 0 0  25.15000000001266 0 0  25.2250000000131 0 0  25.30000000001355 0 0  25.37500000001399 0 0  25.45000000001445 0 0  25.5250000000149 0 0  25.60000000001534 0 0  25.67500000001579 0 0  25.75000000001624 0 0  25.82500000001669 0 0  25.90000000001714 0 0  25.97500000001758 0 0  26.05000000001803 0 0  26.12500000001848 0 0  26.2000000000189
[...]
<PointData  Vectors="f_6-0"> 
<DataArray  type="Float64"  Name="f_6-0"  NumberOfComponents="3" format="ascii">9.9990920426259511e-01 0.0000000000000000e+00 0.0000000000000000e+00  9.6011642409169051e-01 0.0000000000000000e+00 0.0000000000000000e+00  8.7575175323353644e-04 -9.4880715754579149e-04 -5.3996553966906712e-05  1.0000000000002600e-60 0.0000000000000000e+00 0.0000000000000000e+00  1.0000000000001362e-60 0.0000000000000000e+00 0.0000000000000000e+00  1.0000000000002600e-60 0.0000000000000000e+00 0.0000000000000000e+00  8.4828363995751288e-01 0.0000000000000000e+00 3.1810636498396133e-02  7.1946442769303920e-01 2.8943866342487404e-03 2.1936319430269115e-02  1.0372984092608321e-01 -3.8669118763332653e-03 3.4281450087984568e-03  1.0000000000000301e-60 0.0000000000000000e+00 0.0000000000000000e+00  1.0000000000000301e-60 0.0000000000000000e+00 0.0000000000000000e+00  9.5253474497572474e-02 -7.2550848406460443e-03 3.3173156764555421e-03  3.3489134640844809e-01 2.0094306023666327e-03 9.9428627991549647e-03  3.0057824651724635e-01 -4.3627542882589945e-04 8.5009856235380259e-03  1.0000000000000301e-60 0.0000000000000000e+00 0.0000000000000000e+00  1.0000000000000301e-60 0.0000000000000000e+00 0.0000000000000000e+00  2.1200889359355052e-01 -1.1073140899555469e-04 5.2933052945243761e-03  1.0000336484153569e+00 0.0000000000000000e+00 0.0000000000000000e+00  9.9974481374792334e-01 0.0000000000000000e+00 0.0000000000000000e+00  1.0004712063172034e+00 0.0000000000000000e+00 0.0000000000000000e+00  1.0010798818591629e+00 0.0000000000000000e+00 0.0000000000000000e+00  1.0018730973440584e+00 0.0000000000000000e+00 0.0000000000000000e+00  1.0029159896483004e+00 0.0000000000000000e+00 0.0000000000000000e+00  1.0041918316628597e+00 0.0000000000000000e+00 0.0000000000000000e+00  1.0056040195590226e+00 0.0000000000000000e+00 0.0000000000000000e+00  1.0068818540545030e+00 0.0000000000000000e+00 0.0000000000000000e+00  1.0086836745545902e+00 0.0000000000000000e+00 0.0000000000000000e+00  1.0100742163220282e+00 0.0000000000000000e+00 0.0000000000000000e+00  1.0120418427520061e+00 0.0000000000000000e+00 0.0000000000000000e+00  1.0136011482053335e+00 0.0000000000000000e+00 0.0000000000000000e+00  1.0156103767223463e+00 0.0000000000000000e+00 0.0000000000000000e+00  1.0172340223740128e+00 0.0000000000000000e+00 0.0000000000000000e+00  1.0192431021076604e+00 0.0000000000000000e+00 0.0000000000000000e+00  1.0209802207110013e+00 0.0000000000000000e+00 0.0000000000000000e+00  1.0228826416742398e+00 0.0000000000000000e+00 0.0000000000000000e+00  1.0246825571793980e+00 0.0000000000000000e+00 0.0000000000000000e+00  1.0266339777662685e+00 0.0000000000000000e+00 0.0000000000000000e+00  1.0284420541725996e+00 0.0000000000000000e+00 0.0000000000000000e+00  1.0302341497584184e+00 0.0000000000000000e+00 0.0000000000000000e+00  1.0321604459961782e+00 0.0000000000000000e+00 0.0000000000000000e+00  1.0339296750898759e+00 0.0000000000000000e+00 0.0000000000000000e+00  1.0357876238797996e+00 0.0000000000000000e+00 0.0000000000000000e+00  1.0375284171716710e+00 0.0000000000000000e+00 0.0000000000000000e+00  1.0393510968018784e+00 0.0000000000000000e+00 0.0000000000000000e+00  1.0411411379933508e+00 0.0000000000000000e+00 0.0000000000000000e+00  1.0428774145689286e+00 0.0000000000000000e+00 0.0000000000000000e+00  1.0446567812542140e+00 0.0000000000000000e+00 0.0000000000000000e+00  1.0463660942893882e+00 0.0000000000000000e+00 0.0000000000000000e+00  1.0481081364497078e+00 0.0000000000000000e+00 0.0000000000000000e+00  1.0497909418749778e+00 0.0000000000000000e+00 0.0000000000000000e+00  1.0515338183745162e+00 0.0000000000000000e+00 0.0000000000000000e+00  1.0532050411143465e+00 0.0000000000000000e+00 0.0000000000000000e+00  1.0548467878075838e+00 0.0000000000000000e+00 0.0000000000000000e+00  1.0565653489584985e+00 0.0000000000000000e+00 0.0000000000000000e+00  1.0581834823678440e+00 0.0000000000000000e+00 0.0000000000000000e+00  1.0598453390990037e+00 0.0000000000000000e+00 0.0000000000000000e+00  1.0614271307673215e+00 0.0000000000000000e+00 0.0000000000000000e+00  1.0630774184066496e+00 0.0000000000000000e+00 0.0000000000000000e+00  1.0646850270496455e+00 0.0000000000000000e+00 0.0000000000000000e+00  1.0662645939652782e+00 0.0000000000000000e+00 0.0000000000000000e+00  1.0678563296522352e+00 0.0000000000000000e+00 0.0000000000000000e+00  1.0694122459646176e+00 0.0000000000000000e+00 0.0000000000000000e+00  1.0709804600842492e+00 0.0000000000000000e+00 0.0000000000000000e+00  1.0724999371308921e+00 0.0000000000000000e+00 0.0000000000000000e+00  1.0740571007939139e+00 0.0000000000000000e+00 0.0000000000000000e+00  1.0755659008576997e+00 0.0000000000000000e+00 0.0000000000000000e+00  1.0770534287696978e+00 0.0000000000000000e+00 0.0000000000000000e+00  1.0785719097904518e+00 0.0000000000000000e+00 0.0000000000000000e+00  1.0800088590732737e+00 0.0000000000000000e+00 0.0000000000000000e+00  1.0814834697771007e+00 0.0000000000000000e+00 0.0000000000000000e+00  1.0828579673063339e+00 0.0000000000000000e+00 0.0000000000000000e+00  1.0842884321098893e+00 0.0000000000000000e+00 0.0000000000000000e+00  1.0856405108342566e+00 0.0000000000000000e+00 0.0000000000000000e+00  1.0869544962032063e+00 0.0000000000000000e+00 0.0000000000000000e+00  1.0882320747899985e+00 0.0000000000000000e+00 0.0000000000000000e+00  1.0894346642274144e+00 0.0000000000000000e+00 0.0000000000000000e+00  1.0905858601538518e+00 0.0000000000000000e+00 0.0000000000000000e+00  1.0916493595399748e+00 0.0000000000000000e+00 0.0000000000000000e+00  1.0926351264752463e+00 0.0000000000000000e+00 0.0000000000000000e+00  1.0935152356712186e+00 0.0000000000000000e+00 0.0000000000000000e+00  1.0942924859938483e+00 0.0000000000000000e+00 0.0000000000000000e+00  1.0949782769537302e+00 0.0000000000000000e+00 0.0000000000000000e+00  1.0955049386226887e+00 0.0000000000000000e+00 0.0000000000000000e+00  1.0959763400724838e+00 0.0000000000000000e+00 0.0000000000000000e+00  1.0962893811956982e+00 0.0000000000000000e+00 0.0000000000000000e+00  1.0965695424129884e+00 0.0000000000000000e+00 0.0000000000000000e+00  1.0967556467068440e+00 0.0000000000000000e+00 0.0000000000000000e+00  1.0968628085754479e+00 0.0000000000000000e+00 0.0000000000000000e+00  1.0969379860147508e+00 0.0000000000000000e+00 0.0000000000000000e+00  1.0969600044213752e+00 0.0000000000000000e+00 0.0000000000000000e+00  1.0969737889259124e+00 0.0000000000000000e+00 0.0000000000000000e+00  1.0969561261028908e+00 0.0000000000000000e+00 0.0000000000000000e+00  1.0969356431657769e+00 0.0000000000000000e+00 0.0000000000000000e+00  1.0969123495094575e+00 0.0000000000000000e+00 0.0000000000000000e+00  1.0968808742360725e+00 0.0000000000000000e+00 0.0000000000000000e+00  1.0968764417310899e+00 0.0000000000000000e+00 0.0000000000000000e+00  1.0968244789314323e+00 0.0000000000000000e+00 0.0000000000000000e+00  1.0968077928690787e+00 0.0000000000000000e+00 0.0000000000000000e+00  1.0967470379607562e+00 0.0000000000000000e+00 0.0000000000000000e+00  1.0967582399272449e+00 0.0000000000000000e+00 0.0000000000000000e+00  1.0967207854551957e+00 0.0000000000000000e+00 0.0000000000000000e+00  1.0967029940812920e+00 0.0000000000000000e+00 0.0000000000000000e+00  1.0966646463449787e+00 0.0000000000000000e+00 0.0000000000000000e+00  1.0966412130370142e+00 0.0000000000000000e+00 0.0000000000000000e+00  1.0966217015817943e+00 0.0000000000000000e+00 0.0000000000000000e+00  1.0965857908246379e+00 0.0000000000000000e+00 0.0000000000000000e+00  1.0965628356575767e+00 0.0000000000000000e+00 0.0000000000000000e+00  1.0965322620629252e+00 0.0000000000000000e+00 0.0000000000000000e+00  1.0965176047419820e+00 0.0000000000000000e+00 0.0000000000000000e+00  1.0965103310599773e+00 0.0000000000000000e+00 0.0000000000000000e+00  1.0964664713126515e+00 0.0000000000000000e+00 0.0000000000000000e+00  1.0964521922654438e+00 0.0000000000000000e+00 0.0000000000000000e+00  1.0963904216565441e+00 0.0000000000000000e+00 0.0000000000000000e+00  1.0964095900549706e+00 0.0000000000000000e+00 0.0000000000000000e+00  1.0963707230403121e+00 0.0000000000000000e+00 0.0000000000000000e+00  1.0963552972081041e+00 0.0000000000000000e+00 0.0000000000000000e+00  1.0963144560770510e+00 0.0000000000000000e+00 0.0000000000000000e+00  1.0962889716964745e+00 0.0000000000000000e+00 0.0000000000000000e+00  1.0962625941063875e+00 0.0000000000000000e+00 0.0000000000000000e+00  1.0962283651024152e+00 0.0000000000000000e+00 0.0000000000000000e+00  1.0961919312352615e+00 0.0000000000000000e+00 0.0000000000000000e+00  1.0961592971841398e+00 0.0000000000000000e+00 0.0000000000000000e+00  1.0961423094699150e+00 0.0000000000000000e+00 0.0000000000000000e+00  1.0961275383085849e+00 0.0000000000000000e+00 0.0000000000000000e+00  1.0960775950626929e+00 0.0000000000000000e+00 0.0000000000000000e+00  1.0960535271236564e+00 0.0000000000000000e+00 0.0000000000000000e+00  1.0959855601244055e+00 0.0000000000000000e+00 0.0000000000000000e+00  1.0959989250567010e+00 0.0000000000000000e+00 0.0000000000000000e+00  1.0959535292276725e+00 0.0000000000000000e+00 0.0000000000000000e+00  1.0959308860015022e+00 0.0000000000000000e+00 0.0000000000000000e+00  1.0958813198149853e+00 0.0000000000000000e+00 0.0000000000000000e+00  1.0958471545330026e+00 0.0000000000000000e+00 0.0000000000000000e+00  1.0958132797260702e+00 0.0000000000000000e+00 0.0000000000000000e+00  1.0957730346996166e+00 0.0000000000000000e+00 0.0000000000000000e+00  1.0957266548423084e+00 0.0000000000000000e+00 0.0000000000000000e+00  1.0956866340067732e+00 0.0000000000000000e+00 0.0000000000000000e+00  1.0956622397863554e+00 0.0000000000000000e+00 0.0000000000000000e+00  1.0956360628645350e+00 0.0000000000000000e+00 0.0000000000000000e+00  1.0955785997557970e+00 0.0000000000000000e+00 0.0000000000000000e+00  1.0955410787075750e+00 0.0000000000000000e+00 0.0000000000000000e+00  1.0954677066319598e+00 0.0000000000000000e+00 0.0000000000000000e+00  1.0954676083858015e+00 0.0000000000000000e+00 0.0000000000000000e+00  1.0954158300495751e+00 0.0000000000000000e+00 0.0000000000000000e+00  1.0953832955718181e+00 0.0000000000000000e+00 0.0000000000000000e+00  1.0953195926351793e+00 0.0000000000000000e+00 0.0000000000000000e+00  1.0952695419815703e+00 0.0000000000000000e+00 0.0000000000000000e+00  1.0952195717573274e+00 0.0000000000000000e+00 0.0000000000000000e+00  1.0951530846213109e+00 0.0000000000000000e+00 0.0000000000000000e+00  1.0951306654978925e+00 0.0000000000000000e+00 0.0000000000000000e+00  1.0950770944726529e+00 0.0000000000000000e+00 0.0000000000000000e+00  1.0950330119971725e+00 0.0000000000000000e+00 0.0000000000000000e+00  1.0950020832338436e+00 0.0000000000000000e+00 0.0000000000000000e+00  1.0949145515643453e+00 0.0000000000000000e+00 0.0000000000000000e+00  1.0948921616104694e+00 0.0000000000000000e+00 0.0000000000000000e+00  1.0948307483246558e+00 0.0000000000000000e+00 0.0000000000000000e+00  1.0947812370421652e+00 0.0000000000000000e+00 0.0000000000000000e+00  1.0947384611614284e+00 0.0000000000000000e+00 0.0000000000000000e+00  1.0946674410450488e+00 0.0000000000000000e+00 0.0000000000000000e+00  1.0945850457074704e+00 0.0000000000000000e+00 0.0000000000000000e+00  1.0945491940002461e+00 0.0000000000000000e+00 0.0000000000000000e+00  1.0944996356603236e+00 0.0000000000000000e+00 0.0000000000000000e+00  1.0944551644919627e+00 0.0000000000000000e+00 0.0000000000000000e+00  1.0943687402368412e+00 0.0000000000000000e+00 0.0000000000000000e+00  1.0942585360191053e+00 0.0000000000000000e+00 0.0000000000000000e+00  1.0942284336689718e+00 0.0000000000000000e+00 0.0000000000000000e+00  1.0941430616562724e+00 0.0000000000000000e+00 0.0000000000000000e+00  1.0941129493915756e+00 0.0000000000000000e+00 0.0000000000000000e+00  1.0940439482114483e+00 0.0000000000000000e+00 0.0000000000000000e+00  1.0939920018788825e+00 0.0000000000000000e+00 0.0000000000000000e+00  1.0939183199929550e+00 0.0000000000000000e+00 0.0000000000000000e+00  1.0938370692639938e+00 0.0000000000000000e+00 0.0000000000000000e+00  1.0938073024007702e+00 0.0000000000000000e+00 0.0000000000000000e+00  1.0937566684842901e+00 0.0000000000000000e+00 0.0000000000000000e+00  1.0936588030112027e+00 0.0000000000000000e+00 0.0000000000000000e+00  1.0936096537823041e+00 0.0000000000000000e+00 0.0000000000000000e+00  1.0935198796577206e+00 0.0000000000000000e+00 0.0000000000000000e+00  1.0934599273114514e+00 0.0000000000000000e+00 0.0000000000000000e+00  1.0933851493040259e+00 0.0000000000000000e+00 0.0000000000000000e+00  1.0933041169249413e+00 0.0000000000000000e+00 0.0000000000000000e+00  1.0932182751365638e+00 0.0000000000000000e+00 0.0000000000000000e+00  1.0931283274690526e+00 0.0000000000000000e+00 0.0000000000000000e+00  1.0930589131677417e+00 0.0000000000000000e+00 0.0000000000000000e+00  1.0929781039264639e+00 0.0000000000000000e+00 0.0000000000000000e+00  1.0928875637299096e+00 0.0000000000000000e+00 0.0000000000000000e+00  1.0927878897119838e+00 0.0000000000000000e+00 0.0000000000000000e+00  1.0927233773968839e+00 0.0000000000000000e+00 0.0000000000000000e+00  1.0926723292920817e+00 0.0000000000000000e+00 0.0000000000000000e+00  1.0925777899852174e+00 0.0000000000000000e+00 0.0000000000000000e+00  1.0924941503105949e+00 0.0000000000000000e+00 0.0000000000000000e+00  1.0924058402753545e+00 0.0000000000000000e+00 0.0000000000000000e+00  1.0923235822429127e+00 0.0000000000000000e+00 0.0000000000000000e+00  1.0922303631655785e+00 0.0000000000000000e+00 0.0000000000000000e+00  1.0921410063956918e+00 0.0000000000000000e+00 0.0000000000000000e+00  1.0920349334025263e+00 0.0000000000000000e+00 0.0000000000000000e+00  1.0919570543674462e+00 0.0000000000000000e+00 0.0000000000000000e+00  1.0918571173408169e+00 0.0000000000000000e+00 0.0000000000000000e+00  1.0917374788693541e+00 0.0000000000000000e+00 0.0000000000000000e+00  1.0916750119908338e+00 0.0000000000000000e+00 0.0000000000000000e+00  1.0915939145754712e+00 0.0000000000000000e+00 0.0000000000000000e+00  1.0914636224403658e+00 0.0000000000000000e+00 0.0000000000000000e+00  1.0913818452060884e+00 0.0000000000000000e+00 0.0000000000000000e+00  1.0912761855056154e+00 0.0000000000000000e+00 0.0000000000000000e+00  1.0911635679864835e+00 0.0000000000000000e+00 0.0000000000000000e+00  1.0910752341546761e+00 0.0000000000000000e+00 0.0000000000000000e+00  1.0909557423439054e+00 0.0000000000000000e+00 0.0000000000000000e+00  1.0908652983335492e+00 0.0000000000000000e+00 0.0000000000000000e+00  1.0907452522001737e+00 0.0000000000000000e+00 0.0000000000000000e+00  1.0906210255391717e+00 0.0000000000000000e+00 0.0000000000000000e+00  1.0905200533010491e+00 0.0000000000000000e+00 0.0000000000000000e+00  1.0903878327478043e+00 0.0000000000000000e+00 0.0000000000000000e+00  1.0902971042019836e+00 0.0000000000000000e+00 0.0000000000000000e+00  1.0901776142299393e+00 0.0000000000000000e+00 0.0000000000000000e+00  1.0900919951098180e+00 0.0000000000000000e+00 0.0000000000000000e+00  1.0899572278954330e+00 0.0000000000000000e+00 0.0000000000000000e+00  1.0898617076069856e+00 0.0000000000000000e+00 0.0000000000000000e+00  1.0897133297351966e+00 0.0000000000000000e+00 0.0000000000000000e+00  1.0895584880676144e+00 0.0000000000000000e+00 0.0000000000000000e+00  1.0894405387371831e+00 0.0000000000000000e+00 0.0000000000000000e+00  1.0893561630492137e+00 0.0000000000000000e+00 0.0000000000000000e+00  1.0892337896891791e+00 0.0000000000000000e+00 0.0000000000000000e+00  1.0891199413194086e+00 0.0000000000000000e+00 0.0000000000000000e+00  1.0889842479339171e+00 0.0000000000000000e+00 0.0000000000000000e+00  1.0888811135841474e+00 0.0000000000000000e+00 0.0000000000000000e+00  1.0887191905652056e+00 0.0000000000000000e+00 0.0000000000000000e+00  1.0886102553158035e+00 0.0000000000000000e+00 0.0000000000000000e+00  1.0884747650444047e+00 0.0000000000000000e+00 0.0000000000000000e+00  1.0883467273943828e+00 0.0000000000000000e+00 0.0000000000000000e+00  1.0882055076382910e+00 0.0000000000000000e+00 0.0000000000000000e+00  1.0880721614823998e+00 0.0000000000000000e+00 0.0000000000000000e+00  1.0879295675716523e+00 0.0000000000000000e+00 0.0000000000000000e+00  1.0877812429493265e+00 0.0000000000000000e+00 0.0000000000000000e+00  1.0876552296518154e+00 0.0000000000000000e+00 0.0000000000000000e+00  1.0875127335643857e+00 0.0000000000000000e+00 0.0000000000000000e+00  1.0873668246991188e+00 0.0000000000000000e+00 0.0000000000000000e+00  1.0872379318750254e+00 0.0000000000000000e+00 0.0000000000000000e+00  1.0870905145195768e+00 0.0000000000000000e+00 0.0000000000000000e+00  1.0869291877534646e+00 0.0000000000000000e+00 0.0000000000000000e+00  1.0867886325489351e+00 0.0000000000000000e+00 0.0000000000000000e+00  1.0866393573236279e+00 0.0000000000000000e+00 0.0000000000000000e+00  1.0864958798384565e+00 0.0000000000000000e+00 0.0000000000000000e+00  1.0863328685676554e+00 0.0000000000000000e+00 0.0000000000000000e+00  1.0861742084595309e+00 0.0000000000000000e+00 0.0000000000000000e+00  1.0860288110154264e+00 0.0000000000000000e+00 0.0000000000000000e+00  1.0858736621414657e+00 0.0000000000000000e+00 0.0000000000000000e+00  1.0857118399609369e+00 0.0000000000000000e+00 0.0000000000000000e+00  1.0855668443590114e+00 0.0000000000000000e+00 0.0000000000000000e+00  1.0854043101161914e+00 0.0000000000000000e+00 0.0000000000000000e+00  1.0852282551455150e+00 0.0000000000000000e+00 0.0000000000000000e+00  1.0850721658839495e+00 0.0000000000000000e+00 0.0000000000000000e+00  1.0849081483606289e+00 0.0000000000000000e+00 0.0000000000000000e+00  1.0847496209018841e+00 0.0000000000000000e+00 0.0000000000000000e+00  1.0845717420121950e+00 0.0000000000000000e+00 0.0000000000000000e+00  1.0843972626681841e+00 0.0000000000000000e+00 0.0000000000000000e+00  1.0842368723367344e+00 0.0000000000000000e+00 0.0000000000000000e+00  1.0840668516552019e+00 0.0000000000000000e+00 0.0000000000000000e+00  1.0838902869329563e+00 0.0000000000000000e+00 0.0000000000000000e+00  1.0837287957947443e+00 0.0000000000000000e+00 0.0000000000000000e+00  1.0835511623249838e+00 0.0000000000000000e+00 0.0000000000000000e+00  1.0833598125312143e+00 0.0000000000000000e+00 0.0000000000000000e+00  1.0831886600330218e+00 0.0000000000000000e+00 0.0000000000000000e+00  1.0830093382346320e+00 0.0000000000000000e+00 0.0000000000000000e+00  1.0828352706218436e+00 0.0000000000000000e+00 0.0000000000000000e+00  1.0826425567065887e+00 0.0000000000000000e+00 0.0000000000000000e+00  1.0824526578437044e+00 0.0000000000000000e+00 0.0000000000000000e+00  1.0822769098871488e+00 0.0000000000000000e+00 0.0000000000000000e+00  1.0820919568496619e+00 0.0000000000000000e+00 0.0000000000000000e+00  1.0819004896738085e+00 0.0000000000000000e+00 0.0000000000000000e+00  1.0817225987198982e+00 0.0000000000000000e+00 0.0000000000000000e+00  1.0815296638832184e+00 0.0000000000000000e+00 0.0000000000000000e+00  1.0813220660655665e+00 0.0000000000000000e+00 0.0000000000000000e+00  1.0811372770347107e+00 0.0000000000000000e+00 0.0000000000000000e+00  1.0809463512419517e+00 0.0000000000000000e+00 0.0000000000000000e+00  1.0807509948535676e+00 0.0000000000000000e+00 0.0000000000000000e+00  1.0805358375037752e+00 0.0000000000000000e+00 0.0000000000000000e+00  1.0803313252927766e+00 0.0000000000000000e+00 0.0000000000000000e+00  1.0801529063926179e+00 0.0000000000000000e+00 0.0000000000000000e+00  1.0799458444539167e+00 0.0000000000000000e+00 0.0000000000000000e+00  1.0797453955620446e+00 0.0000000000000000e+00 0.0000000000000000e+00  1.0795476836626985e+00 0.0000000000000000e+00 0.0000000000000000e+00  1.0793423989096154e+00 0.0000000000000000e+00 0.0000000000000000e+00  1.0791182430416792e+00 0.0000000000000000e+00 0.0000000000000000e+00  1.0789190104865585e+00 0.0000000000000000e+00 0.0000000000000000e+00  1.0787115732712544e+00 0.0000000000000000e+00 0.0000000000000000e+00  1.0785025382899884e+00 0.0000000000000000e+00 0.0000000000000000e+00  1.07